<?xml version="1.0" encoding="UTF-8"?>

<!-- generated on 2025-04-29 02:29:30 by Eclipse SUMO sumo Version 1.20.0
<configuration xmlns:xsi="http://www.w3.org/2001/XMLSchema-instance" xsi:noNamespaceSchemaLocation="http://sumo.dlr.de/xsd/sumoConfiguration.xsd">

    <input>
        <net-file value="nets/2lane_unprotected_right/2lane_unprotected_right.net.xml"/>
        <route-files value="nets/2lane_unprotected_right/2lane_unprotected_right.rou.xml"/>
    </input>

    <output>
        <tripinfo-output value="traces/transs50f1_s50_f0.5_random/0000_tripinfo.xml"/>
        <collision-output value="traces/transs50f1_s50_f0.5_random/0000_collisions.xml"/>
        <statistic-output value="traces/transs50f1_s50_f0.5_random/0000_statistics.xml"/>
    </output>

    <processing>
        <collision.action value="teleport"/>
        <collision.check-junctions value="true"/>
        <time-to-teleport value="-1"/>
        <waiting-time-memory value="1000"/>
        <max-depart-delay value="-1"/>
        <default.speeddev value="0.1"/>
    </processing>

    <report>
        <no-warnings value="true"/>
    </report>

    <ssm_device>
        <device.ssm.probability value="1.0"/>
        <device.ssm.measures value="BR"/>
        <device.ssm.file value="/Users/finn/Code/CausalKnowledgeTransfer-4-SafeRL/traces/transs50f1_s50_f0.5_random/0000_ssm.xml"/>
    </ssm_device>

    <traci_server>
        <remote-port value="62389"/>
    </traci_server>

    <random_number>
        <random value="true"/>
    </random_number>

</configuration>
-->

<tripinfos xmlns:xsi="http://www.w3.org/2001/XMLSchema-instance" xsi:noNamespaceSchemaLocation="http://sumo.dlr.de/xsd/tripinfo_file.xsd">
    <tripinfo id="westEastTop.1" depart="3.00" departLane="westJunction_1" departPos="5.10" departSpeed="22.16" departDelay="1.59" arrival="49.00" arrivalLane="junctionEast_0" arrivalPos="492.80" arrivalSpeed="21.97" duration="46.00" routeLength="980.50" waitingTime="0.00" waitingCount="0" stopTime="0.00" timeLoss="1.38" rerouteNo="0" devices="tripinfo_westEastTop.1 ssm_westEastTop.1" vType="carCustom" speedFactor="0.97" vaporized=""/>
    <tripinfo id="westEastTop.2" depart="5.00" departLane="westJunction_1" departPos="5.10" departSpeed="21.98" departDelay="0.53" arrival="52.00" arrivalLane="junctionEast_0" arrivalPos="492.80" arrivalSpeed="21.89" duration="47.00" routeLength="994.90" waitingTime="0.00" waitingCount="0" stopTime="0.00" timeLoss="2.50" rerouteNo="0" devices="tripinfo_westEastTop.2 ssm_westEastTop.2" vType="carCustom" speedFactor="0.92" vaporized=""/>
    <tripinfo id="westEastBottom0.1" depart="8.00" departLane="westJunction_0" departPos="5.10" departSpeed="21.93" departDelay="0.42" arrival="55.00" arrivalLane="junctionEast_1" arrivalPos="492.80" arrivalSpeed="21.93" duration="47.00" routeLength="994.90" waitingTime="0.00" waitingCount="0" stopTime="0.00" timeLoss="1.71" rerouteNo="0" devices="tripinfo_westEastBottom0.1 ssm_westEastBottom0.1" vType="carCustom" speedFactor="0.92" vaporized=""/>
    <tripinfo id="westEastTop.3" depart="10.00" departLane="westJunction_1" departPos="5.10" departSpeed="21.53" departDelay="0.62" arrival="61.00" arrivalLane="junctionEast_1" arrivalPos="492.80" arrivalSpeed="21.83" duration="51.00" routeLength="994.90" waitingTime="0.00" waitingCount="0" stopTime="0.00" timeLoss="5.89" rerouteNo="0" devices="tripinfo_westEastTop.3 ssm_westEastTop.3" vType="carCustom" speedFactor="1.19" vaporized=""/>
    <tripinfo id="westEastTop.0" depart="1.00" departLane="westJunction_1" departPos="5.10" departSpeed="22.22" departDelay="0.66" arrival="63.00" arrivalLane="junctionEast_1" arrivalPos="492.80" arrivalSpeed="21.68" duration="62.00" routeLength="994.90" waitingTime="3.00" waitingCount="1" stopTime="0.00" timeLoss="16.27" rerouteNo="0" devices="tripinfo_westEastTop.0 ssm_westEastTop.0" vType="carCustom" speedFactor="0.95" vaporized=""/>
    <tripinfo id="westEastTop.4" depart="12.00" departLane="westJunction_1" departPos="5.10" departSpeed="21.35" departDelay="0.96" arrival="65.00" arrivalLane="junctionEast_1" arrivalPos="492.80" arrivalSpeed="21.38" duration="53.00" routeLength="994.90" waitingTime="0.00" waitingCount="0" stopTime="0.00" timeLoss="7.56" rerouteNo="0" devices="tripinfo_westEastTop.4 ssm_westEastTop.4" vType="carCustom" speedFactor="1.04" vaporized=""/>
    <tripinfo id="southNorth.0" depart="20.00" departLane="southJunction_1" departPos="5.10" departSpeed="6.60" departDelay="0.97" arrival="78.00" arrivalLane="junctionNorth_0" arrivalPos="492.80" arrivalSpeed="21.92" duration="58.00" routeLength="995.01" waitingTime="2.00" waitingCount="1" stopTime="0.00" timeLoss="12.59" rerouteNo="0" devices="tripinfo_southNorth.0 ssm_southNorth.0" vType="carCustom" speedFactor="0.89" vaporized=""/>
    <tripinfo id="westEastBottom0.0" depart="1.00" departLane="westJunction_0" departPos="5.10" departSpeed="22.22" departDelay="0.57" arrival="79.00" arrivalLane="junctionEast_1" arrivalPos="492.80" arrivalSpeed="21.90" duration="78.00" routeLength="994.90" waitingTime="3.00" waitingCount="1" stopTime="0.00" timeLoss="32.31" rerouteNo="0" devices="tripinfo_westEastBottom0.0 ssm_westEastBottom0.0" vType="carCustom" speedFactor="0.92" vaporized=""/>
    <tripinfo id="westEastTop.5" depart="32.00" departLane="westJunction_1" departPos="5.10" departSpeed="19.55" departDelay="4.40" arrival="88.00" arrivalLane="junctionEast_1" arrivalPos="492.80" arrivalSpeed="22.05" duration="56.00" routeLength="994.90" waitingTime="0.00" waitingCount="0" stopTime="0.00" timeLoss="10.69" rerouteNo="0" devices="tripinfo_westEastTop.5 ssm_westEastTop.5" vType="carCustom" speedFactor="0.98" vaporized=""/>
    <tripinfo id="westEastBottom0.3" depart="51.00" departLane="westJunction_0" departPos="5.10" departSpeed="6.60" departDelay="0.29" arrival="111.00" arrivalLane="junctionEast_1" arrivalPos="492.80" arrivalSpeed="22.19" duration="60.00" routeLength="994.90" waitingTime="0.00" waitingCount="0" stopTime="0.00" timeLoss="14.25" rerouteNo="0" devices="tripinfo_westEastBottom0.3 ssm_westEastBottom0.3" vType="carCustom" speedFactor="0.98" vaporized=""/>
    <tripinfo id="westEastBottom0.4" depart="58.00" departLane="westJunction_0" departPos="5.10" departSpeed="8.72" departDelay="6.51" arrival="135.00" arrivalLane="junctionEast_1" arrivalPos="492.80" arrivalSpeed="22.02" duration="77.00" routeLength="994.90" waitingTime="1.00" waitingCount="1" stopTime="0.00" timeLoss="30.91" rerouteNo="0" devices="tripinfo_westEastBottom0.4 ssm_westEastBottom0.4" vType="carCustom" speedFactor="0.91" vaporized=""/>
    <tripinfo id="southEast.1" depart="45.00" departLane="southJunction_0" departPos="5.10" departSpeed="7.82" departDelay="1.23" arrival="155.00" arrivalLane="junctionEast_1" arrivalPos="492.80" arrivalSpeed="21.75" duration="110.00" routeLength="989.53" waitingTime="0.00" waitingCount="0" stopTime="0.00" timeLoss="64.28" rerouteNo="0" devices="tripinfo_southEast.1 ssm_southEast.1" vType="carCustom" speedFactor="0.97" vaporized=""/>
    <tripinfo id="westEastBottom0.5" depart="109.00" departLane="westJunction_0" departPos="5.10" departSpeed="22.22" departDelay="1.00" arrival="157.00" arrivalLane="junctionEast_1" arrivalPos="492.80" arrivalSpeed="22.02" duration="48.00" routeLength="994.90" waitingTime="0.00" waitingCount="0" stopTime="0.00" timeLoss="2.36" rerouteNo="0" devices="tripinfo_westEastBottom0.5 ssm_westEastBottom0.5" vType="carCustom" speedFactor="1.02" vaporized=""/>
    <tripinfo id="westEastBottom0.6" depart="121.00" departLane="westJunction_0" departPos="5.10" departSpeed="21.68" departDelay="0.24" arrival="170.00" arrivalLane="junctionEast_1" arrivalPos="492.80" arrivalSpeed="22.13" duration="49.00" routeLength="994.90" waitingTime="0.00" waitingCount="0" stopTime="0.00" timeLoss="3.36" rerouteNo="0" devices="tripinfo_westEastBottom0.6 ssm_westEastBottom0.6" vType="carCustom" speedFactor="0.88" vaporized=""/>
    <tripinfo id="westEastBottom0.8" depart="127.00" departLane="westJunction_0" departPos="5.10" departSpeed="21.14" departDelay="0.25" arrival="176.00" arrivalLane="junctionEast_1" arrivalPos="492.80" arrivalSpeed="21.79" duration="49.00" routeLength="980.50" waitingTime="0.00" waitingCount="0" stopTime="0.00" timeLoss="5.27" rerouteNo="0" devices="tripinfo_westEastBottom0.8 ssm_westEastBottom0.8" vType="carCustom" speedFactor="1.18" vaporized=""/>
    <tripinfo id="westEastBottom0.9" depart="129.00" departLane="westJunction_0" departPos="5.10" departSpeed="20.96" departDelay="1.43" arrival="181.00" arrivalLane="junctionEast_1" arrivalPos="492.80" arrivalSpeed="21.64" duration="52.00" routeLength="994.90" waitingTime="0.00" waitingCount="0" stopTime="0.00" timeLoss="7.21" rerouteNo="0" devices="tripinfo_westEastBottom0.9 ssm_westEastBottom0.9" vType="carCustom" speedFactor="0.93" vaporized=""/>
    <tripinfo id="westEastBottom0.10" depart="132.00" departLane="westJunction_0" departPos="5.10" departSpeed="20.69" departDelay="0.43" arrival="185.00" arrivalLane="junctionEast_0" arrivalPos="492.80" arrivalSpeed="22.06" duration="53.00" routeLength="994.90" waitingTime="0.00" waitingCount="0" stopTime="0.00" timeLoss="8.22" rerouteNo="0" devices="tripinfo_westEastBottom0.10 ssm_westEastBottom0.10" vType="carCustom" speedFactor="1.07" vaporized=""/>
    <tripinfo id="southEast.0" depart="44.00" departLane="southJunction_0" departPos="5.10" departSpeed="7.62" departDelay="0.57" arrival="187.00" arrivalLane="junctionEast_1" arrivalPos="492.80" arrivalSpeed="21.88" duration="143.00" routeLength="989.53" waitingTime="0.00" waitingCount="0" stopTime="0.00" timeLoss="97.44" rerouteNo="0" devices="tripinfo_southEast.0 ssm_southEast.0" vType="carCustom" speedFactor="0.96" vaporized=""/>
    <tripinfo id="southNorth.1" depart="52.00" departLane="southJunction_1" departPos="5.10" departSpeed="7.05" departDelay="18.67" arrival="195.00" arrivalLane="junctionNorth_0" arrivalPos="492.80" arrivalSpeed="21.91" duration="143.00" routeLength="995.01" waitingTime="0.00" waitingCount="0" stopTime="0.00" timeLoss="97.30" rerouteNo="0" devices="tripinfo_southNorth.1 ssm_southNorth.1" vType="carCustom" speedFactor="0.90" vaporized=""/>
    <tripinfo id="westEastBottom0.2" depart="32.00" departLane="westJunction_0" departPos="5.10" departSpeed="7.11" departDelay="3.42" arrival="203.00" arrivalLane="junctionEast_1" arrivalPos="492.80" arrivalSpeed="21.76" duration="171.00" routeLength="994.90" waitingTime="0.00" waitingCount="0" stopTime="0.00" timeLoss="126.02" rerouteNo="0" devices="tripinfo_westEastBottom0.2 ssm_westEastBottom0.2" vType="carCustom" speedFactor="1.00" vaporized=""/>
    <tripinfo id="southEast.3" depart="51.00" departLane="southJunction_0" departPos="5.10" departSpeed="7.32" departDelay="0.57" arrival="215.00" arrivalLane="junctionEast_1" arrivalPos="492.80" arrivalSpeed="22.12" duration="164.00" routeLength="989.53" waitingTime="0.00" waitingCount="0" stopTime="0.00" timeLoss="117.60" rerouteNo="0" devices="tripinfo_southEast.3 ssm_southEast.3" vType="carCustom" speedFactor="1.03" vaporized=""/>
    <tripinfo id="westEastBottom0.7" depart="125.00" departLane="westJunction_0" departPos="5.10" departSpeed="21.32" departDelay="0.43" arrival="229.00" arrivalLane="junctionEast_1" arrivalPos="492.80" arrivalSpeed="21.59" duration="104.00" routeLength="994.90" waitingTime="4.00" waitingCount="1" stopTime="0.00" timeLoss="58.70" rerouteNo="0" devices="tripinfo_westEastBottom0.7 ssm_westEastBottom0.7" vType="carCustom" speedFactor="0.97" vaporized=""/>
    <tripinfo id="southNorth.2" depart="57.00" departLane="southJunction_1" departPos="5.10" departSpeed="6.60" departDelay="13.70" arrival="230.00" arrivalLane="junctionNorth_0" arrivalPos="492.80" arrivalSpeed="21.92" duration="173.00" routeLength="995.01" waitingTime="2.00" waitingCount="1" stopTime="0.00" timeLoss="127.23" rerouteNo="0" devices="tripinfo_southNorth.2 ssm_southNorth.2" vType="carCustom" speedFactor="1.02" vaporized=""/>
    <tripinfo id="southEast.4" depart="64.00" departLane="southJunction_0" departPos="5.10" departSpeed="6.15" departDelay="0.63" arrival="237.00" arrivalLane="junctionEast_1" arrivalPos="492.80" arrivalSpeed="21.94" duration="173.00" routeLength="989.53" waitingTime="0.00" waitingCount="0" stopTime="0.00" timeLoss="126.93" rerouteNo="0" devices="tripinfo_southEast.4 ssm_southEast.4" vType="carCustom" speedFactor="0.96" vaporized=""/>
    <tripinfo id="westEastTop.6" depart="35.00" departLane="westJunction_1" departPos="5.10" departSpeed="6.87" departDelay="0.58" arrival="247.00" arrivalLane="junctionEast_1" arrivalPos="492.80" arrivalSpeed="21.90" duration="212.00" routeLength="994.90" waitingTime="4.00" waitingCount="1" stopTime="0.00" timeLoss="166.99" rerouteNo="0" devices="tripinfo_westEastTop.6 ssm_westEastTop.6" vType="carCustom" speedFactor="1.04" vaporized=""/>
    <tripinfo id="southNorth.3" depart="60.00" departLane="southJunction_1" departPos="5.10" departSpeed="6.33" departDelay="0.39" arrival="259.00" arrivalLane="junctionNorth_0" arrivalPos="492.80" arrivalSpeed="22.11" duration="199.00" routeLength="995.01" waitingTime="2.00" waitingCount="1" stopTime="0.00" timeLoss="153.98" rerouteNo="0" devices="tripinfo_southNorth.3 ssm_southNorth.3" vType="carCustom" speedFactor="0.92" vaporized=""/>
    <tripinfo id="southEast.2" depart="47.00" departLane="southJunction_0" departPos="5.10" departSpeed="7.68" departDelay="0.69" arrival="261.00" arrivalLane="junctionEast_1" arrivalPos="492.80" arrivalSpeed="21.69" duration="214.00" routeLength="989.53" waitingTime="0.00" waitingCount="0" stopTime="0.00" timeLoss="167.97" rerouteNo="0" devices="tripinfo_southEast.2 ssm_southEast.2" vType="carCustom" speedFactor="1.04" vaporized=""/>
    <tripinfo id="southEast.5" depart="117.00" departLane="southJunction_0" departPos="5.10" departSpeed="3.24" departDelay="0.37" arrival="272.00" arrivalLane="junctionEast_1" arrivalPos="492.80" arrivalSpeed="21.46" duration="155.00" routeLength="989.53" waitingTime="0.00" waitingCount="0" stopTime="0.00" timeLoss="108.89" rerouteNo="0" devices="tripinfo_southEast.5 ssm_southEast.5" vType="carCustom" speedFactor="1.10" vaporized=""/>
    <tripinfo id="westEastBottom0.11" depart="170.00" departLane="westJunction_0" departPos="5.10" departSpeed="6.60" departDelay="0.52" arrival="280.00" arrivalLane="junctionEast_1" arrivalPos="492.80" arrivalSpeed="21.98" duration="110.00" routeLength="994.90" waitingTime="3.00" waitingCount="1" stopTime="0.00" timeLoss="64.99" rerouteNo="0" devices="tripinfo_westEastBottom0.11 ssm_westEastBottom0.11" vType="carCustom" speedFactor="1.03" vaporized=""/>
    <tripinfo id="southNorth.4" depart="63.00" departLane="southJunction_1" departPos="5.10" departSpeed="6.06" departDelay="1.11" arrival="290.00" arrivalLane="junctionNorth_0" arrivalPos="492.80" arrivalSpeed="21.71" duration="227.00" routeLength="995.01" waitingTime="4.00" waitingCount="1" stopTime="0.00" timeLoss="181.60" rerouteNo="0" devices="tripinfo_southNorth.4 ssm_southNorth.4" vType="carCustom" speedFactor="0.92" vaporized=""/>
    <tripinfo id="westEastTop.7" depart="38.00" departLane="westJunction_1" departPos="5.10" departSpeed="6.60" departDelay="1.87" arrival="293.00" arrivalLane="junctionEast_1" arrivalPos="492.80" arrivalSpeed="22.01" duration="255.00" routeLength="994.90" waitingTime="0.00" waitingCount="0" stopTime="0.00" timeLoss="210.20" rerouteNo="0" devices="tripinfo_westEastTop.7 ssm_westEastTop.7" vType="carCustom" speedFactor="1.11" vaporized=""/>
    <tripinfo id="westEastTop.8" depart="41.00" departLane="westJunction_1" departPos="5.10" departSpeed="6.33" departDelay="1.46" arrival="296.00" arrivalLane="junctionEast_1" arrivalPos="492.80" arrivalSpeed="21.83" duration="255.00" routeLength="994.90" waitingTime="4.00" waitingCount="1" stopTime="0.00" timeLoss="209.29" rerouteNo="0" devices="tripinfo_westEastTop.8 ssm_westEastTop.8" vType="carCustom" speedFactor="0.93" vaporized=""/>
    <tripinfo id="westEastBottom0.13" depart="207.00" departLane="westJunction_0" departPos="5.10" departSpeed="10.55" departDelay="6.11" arrival="310.00" arrivalLane="junctionEast_1" arrivalPos="492.80" arrivalSpeed="21.93" duration="103.00" routeLength="994.90" waitingTime="0.00" waitingCount="0" stopTime="0.00" timeLoss="57.97" rerouteNo="0" devices="tripinfo_westEastBottom0.13 ssm_westEastBottom0.13" vType="carCustom" speedFactor="1.11" vaporized=""/>
    <tripinfo id="southNorth.5" depart="87.00" departLane="southJunction_1" departPos="5.10" departSpeed="3.90" departDelay="0.12" arrival="319.00" arrivalLane="junctionNorth_0" arrivalPos="492.80" arrivalSpeed="21.95" duration="232.00" routeLength="995.01" waitingTime="4.00" waitingCount="1" stopTime="0.00" timeLoss="186.63" rerouteNo="0" devices="tripinfo_southNorth.5 ssm_southNorth.5" vType="carCustom" speedFactor="0.81" vaporized=""/>
    <tripinfo id="westEastBottom0.14" depart="210.00" departLane="westJunction_0" departPos="5.10" departSpeed="10.28" departDelay="0.38" arrival="319.00" arrivalLane="junctionEast_1" arrivalPos="492.80" arrivalSpeed="22.06" duration="109.00" routeLength="994.90" waitingTime="0.00" waitingCount="0" stopTime="0.00" timeLoss="64.14" rerouteNo="0" devices="tripinfo_westEastBottom0.14 ssm_westEastBottom0.14" vType="carCustom" speedFactor="0.94" vaporized=""/>
    <tripinfo id="southEast.6" depart="121.00" departLane="southJunction_0" departPos="5.10" departSpeed="3.73" departDelay="4.09" arrival="332.00" arrivalLane="junctionEast_0" arrivalPos="492.80" arrivalSpeed="22.03" duration="211.00" routeLength="989.53" waitingTime="0.00" waitingCount="0" stopTime="0.00" timeLoss="165.17" rerouteNo="0" devices="tripinfo_southEast.6 ssm_southEast.6" vType="carCustom" speedFactor="0.83" vaporized=""/>
    <tripinfo id="westEastBottom0.12" depart="194.00" departLane="westJunction_0" departPos="5.10" departSpeed="11.72" departDelay="4.03" arrival="336.00" arrivalLane="junctionEast_0" arrivalPos="492.80" arrivalSpeed="21.72" duration="142.00" routeLength="994.90" waitingTime="5.00" waitingCount="1" stopTime="0.00" timeLoss="95.86" rerouteNo="0" devices="tripinfo_westEastBottom0.12 ssm_westEastBottom0.12" vType="carCustom" speedFactor="0.97" vaporized=""/>
    <tripinfo id="southNorth.6" depart="99.00" departLane="southJunction_1" departPos="5.10" departSpeed="3.11" departDelay="0.53" arrival="344.00" arrivalLane="junctionNorth_0" arrivalPos="492.80" arrivalSpeed="21.83" duration="245.00" routeLength="995.01" waitingTime="0.00" waitingCount="0" stopTime="0.00" timeLoss="200.11" rerouteNo="0" devices="tripinfo_southNorth.6 ssm_southNorth.6" vType="carCustom" speedFactor="0.89" vaporized=""/>
    <tripinfo id="westEastTop.10" depart="49.00" departLane="westJunction_1" departPos="5.10" departSpeed="5.61" departDelay="0.05" arrival="349.00" arrivalLane="junctionEast_1" arrivalPos="492.80" arrivalSpeed="22.07" duration="300.00" routeLength="994.90" waitingTime="2.00" waitingCount="1" stopTime="0.00" timeLoss="254.26" rerouteNo="0" devices="tripinfo_westEastTop.10 ssm_westEastTop.10" vType="carCustom" speedFactor="1.11" vaporized=""/>
    <tripinfo id="southEast.7" depart="129.00" departLane="southJunction_0" departPos="5.10" departSpeed="3.01" departDelay="0.29" arrival="364.00" arrivalLane="junctionEast_0" arrivalPos="492.80" arrivalSpeed="22.11" duration="235.00" routeLength="989.53" waitingTime="0.00" waitingCount="0" stopTime="0.00" timeLoss="189.05" rerouteNo="0" devices="tripinfo_southEast.7 ssm_southEast.7" vType="carCustom" speedFactor="1.03" vaporized=""/>
    <tripinfo id="westEastTop.9" depart="44.00" departLane="westJunction_1" departPos="5.10" departSpeed="6.06" departDelay="3.51" arrival="366.00" arrivalLane="junctionEast_0" arrivalPos="492.80" arrivalSpeed="21.57" duration="322.00" routeLength="994.90" waitingTime="2.00" waitingCount="1" stopTime="0.00" timeLoss="277.09" rerouteNo="0" devices="tripinfo_westEastTop.9 ssm_westEastTop.9" vType="carCustom" speedFactor="0.98" vaporized=""/>
    <tripinfo id="southNorth.7" depart="117.00" departLane="southJunction_1" departPos="5.10" departSpeed="1.75" departDelay="0.56" arrival="369.00" arrivalLane="junctionNorth_0" arrivalPos="492.80" arrivalSpeed="22.04" duration="252.00" routeLength="995.01" waitingTime="0.00" waitingCount="0" stopTime="0.00" timeLoss="206.98" rerouteNo="0" devices="tripinfo_southNorth.7 ssm_southNorth.7" vType="carCustom" speedFactor="0.86" vaporized=""/>
    <tripinfo id="westEastTop.11" depart="52.00" departLane="westJunction_1" departPos="5.10" departSpeed="5.34" departDelay="2.53" arrival="380.00" arrivalLane="junctionEast_1" arrivalPos="492.80" arrivalSpeed="21.98" duration="328.00" routeLength="994.90" waitingTime="5.00" waitingCount="1" stopTime="0.00" timeLoss="282.87" rerouteNo="0" devices="tripinfo_westEastTop.11 ssm_westEastTop.11" vType="carCustom" speedFactor="1.14" vaporized=""/>
    <tripinfo id="southEast.8" depart="133.00" departLane="southJunction_0" departPos="5.10" departSpeed="2.65" departDelay="2.82" arrival="394.00" arrivalLane="junctionEast_0" arrivalPos="492.80" arrivalSpeed="21.95" duration="261.00" routeLength="989.53" waitingTime="0.00" waitingCount="0" stopTime="0.00" timeLoss="214.83" rerouteNo="0" devices="tripinfo_southEast.8 ssm_southEast.8" vType="carCustom" speedFactor="0.82" vaporized=""/>
    <tripinfo id="southNorth.8" depart="127.00" departLane="southJunction_1" departPos="5.10" departSpeed="1.30" departDelay="0.38" arrival="400.00" arrivalLane="junctionNorth_0" arrivalPos="492.80" arrivalSpeed="21.84" duration="273.00" routeLength="995.01" waitingTime="3.00" waitingCount="1" stopTime="0.00" timeLoss="227.13" rerouteNo="0" devices="tripinfo_southNorth.8 ssm_southNorth.8" vType="carCustom" speedFactor="0.99" vaporized=""/>
    <tripinfo id="southEast.11" depart="156.00" departLane="southJunction_0" departPos="5.10" departSpeed="0.59" departDelay="0.07" arrival="401.00" arrivalLane="junctionEast_0" arrivalPos="492.80" arrivalSpeed="5.70" duration="245.00" routeLength="989.53" waitingTime="0.00" waitingCount="0" stopTime="0.00" timeLoss="221.12" rerouteNo="0" devices="tripinfo_southEast.11 ssm_southEast.11" vType="carCustom" speedFactor="0.97" vaporized="teleport"/>
    <tripinfo id="westEastBottom0.15" depart="227.00" departLane="westJunction_0" departPos="5.10" departSpeed="8.75" departDelay="15.38" arrival="402.00" arrivalLane="junctionEast_0" arrivalPos="492.80" arrivalSpeed="21.90" duration="175.00" routeLength="994.90" waitingTime="5.00" waitingCount="1" stopTime="0.00" timeLoss="129.22" rerouteNo="0" devices="tripinfo_westEastBottom0.15 ssm_westEastBottom0.15" vType="carCustom" speedFactor="1.13" vaporized=""/>
    <tripinfo id="westEastBottom0.17" depart="237.00" departLane="westJunction_0" departPos="5.10" departSpeed="7.85" departDelay="19.33" arrival="409.00" arrivalLane="junctionEast_0" arrivalPos="492.80" arrivalSpeed="21.81" duration="172.00" routeLength="994.90" waitingTime="5.00" waitingCount="1" stopTime="0.00" timeLoss="126.45" rerouteNo="0" devices="tripinfo_westEastBottom0.17 ssm_westEastBottom0.17" vType="carCustom" speedFactor="0.94" vaporized=""/>
    <tripinfo id="westEastBottom0.16" depart="229.00" departLane="westJunction_0" departPos="5.10" departSpeed="8.57" departDelay="11.48" arrival="425.00" arrivalLane="junctionEast_0" arrivalPos="492.80" arrivalSpeed="21.90" duration="196.00" routeLength="994.90" waitingTime="0.00" waitingCount="0" stopTime="0.00" timeLoss="150.86" rerouteNo="0" devices="tripinfo_westEastBottom0.16 ssm_westEastBottom0.16" vType="carCustom" speedFactor="1.02" vaporized=""/>
    <tripinfo id="westEastTop.12" depart="73.00" departLane="westJunction_1" departPos="5.10" departSpeed="3.45" departDelay="0.72" arrival="429.00" arrivalLane="junctionEast_0" arrivalPos="492.80" arrivalSpeed="21.81" duration="356.00" routeLength="994.90" waitingTime="0.00" waitingCount="0" stopTime="0.00" timeLoss="310.61" rerouteNo="0" devices="tripinfo_westEastTop.12 ssm_westEastTop.12" vType="carCustom" speedFactor="1.19" vaporized=""/>
    <tripinfo id="southNorth.9" depart="136.00" departLane="southJunction_1" departPos="5.10" departSpeed="0.84" departDelay="5.61" arrival="439.00" arrivalLane="junctionNorth_0" arrivalPos="492.80" arrivalSpeed="21.93" duration="303.00" routeLength="995.01" waitingTime="4.00" waitingCount="1" stopTime="0.00" timeLoss="257.50" rerouteNo="0" devices="tripinfo_southNorth.9 ssm_southNorth.9" vType="carCustom" speedFactor="0.92" vaporized=""/>
    <tripinfo id="westEastTop.13" depart="77.00" departLane="westJunction_1" departPos="5.10" departSpeed="3.14" departDelay="1.28" arrival="442.00" arrivalLane="junctionEast_1" arrivalPos="492.80" arrivalSpeed="22.21" duration="365.00" routeLength="994.90" waitingTime="2.00" waitingCount="1" stopTime="0.00" timeLoss="319.85" rerouteNo="0" devices="tripinfo_westEastTop.13 ssm_westEastTop.13" vType="carCustom" speedFactor="0.94" vaporized=""/>
    <tripinfo id="southEast.9" depart="138.00" departLane="southJunction_0" departPos="5.10" departSpeed="2.20" departDelay="4.94" arrival="457.00" arrivalLane="junctionEast_0" arrivalPos="492.80" arrivalSpeed="21.69" duration="319.00" routeLength="989.53" waitingTime="0.00" waitingCount="0" stopTime="0.00" timeLoss="272.21" rerouteNo="0" devices="tripinfo_southEast.9 ssm_southEast.9" vType="carCustom" speedFactor="0.95" vaporized=""/>
    <tripinfo id="westEastBottom0.18" depart="239.00" departLane="westJunction_0" departPos="5.10" departSpeed="7.67" departDelay="12.49" arrival="461.00" arrivalLane="junctionEast_0" arrivalPos="492.80" arrivalSpeed="21.82" duration="222.00" routeLength="994.90" waitingTime="3.00" waitingCount="1" stopTime="0.00" timeLoss="176.28" rerouteNo="0" devices="tripinfo_westEastBottom0.18 ssm_westEastBottom0.18" vType="carCustom" speedFactor="1.00" vaporized=""/>
    <tripinfo id="westEastBottom0.19" depart="253.00" departLane="westJunction_0" departPos="5.10" departSpeed="6.41" departDelay="0.36" arrival="473.00" arrivalLane="junctionEast_0" arrivalPos="492.80" arrivalSpeed="22.02" duration="220.00" routeLength="994.90" waitingTime="4.00" waitingCount="1" stopTime="0.00" timeLoss="174.29" rerouteNo="0" devices="tripinfo_westEastBottom0.19 ssm_westEastBottom0.19" vType="carCustom" speedFactor="1.04" vaporized=""/>
    <tripinfo id="westEastTop.15" depart="91.00" departLane="westJunction_1" departPos="5.10" departSpeed="1.88" departDelay="0.88" arrival="486.00" arrivalLane="junctionEast_1" arrivalPos="492.80" arrivalSpeed="21.93" duration="395.00" routeLength="994.90" waitingTime="4.00" waitingCount="1" stopTime="0.00" timeLoss="349.95" rerouteNo="0" devices="tripinfo_westEastTop.15 ssm_westEastTop.15" vType="carCustom" speedFactor="1.00" vaporized=""/>
    <tripinfo id="westEastTop.14" depart="86.00" departLane="westJunction_1" departPos="5.10" departSpeed="2.33" departDelay="0.72" arrival="501.00" arrivalLane="junctionEast_1" arrivalPos="492.80" arrivalSpeed="22.12" duration="415.00" routeLength="994.90" waitingTime="0.00" waitingCount="0" stopTime="0.00" timeLoss="369.52" rerouteNo="0" devices="tripinfo_westEastTop.14 ssm_westEastTop.14" vType="carCustom" speedFactor="0.96" vaporized=""/>
    <tripinfo id="southNorth.10" depart="152.00" departLane="southJunction_1" departPos="5.10" departSpeed="0.77" departDelay="17.73" arrival="501.00" arrivalLane="junctionNorth_0" arrivalPos="492.80" arrivalSpeed="21.78" duration="349.00" routeLength="995.01" waitingTime="2.00" waitingCount="1" stopTime="0.00" timeLoss="303.49" rerouteNo="0" devices="tripinfo_southNorth.10 ssm_southNorth.10" vType="carCustom" speedFactor="0.99" vaporized=""/>
    <tripinfo id="southEast.12" depart="169.00" departLane="southJunction_0" departPos="5.10" departSpeed="0.48" departDelay="1.81" arrival="506.00" arrivalLane="junctionEast_1" arrivalPos="492.80" arrivalSpeed="21.97" duration="337.00" routeLength="989.53" waitingTime="0.00" waitingCount="0" stopTime="0.00" timeLoss="290.20" rerouteNo="0" devices="tripinfo_southEast.12 ssm_southEast.12" vType="carCustom" speedFactor="0.83" vaporized=""/>
    <tripinfo id="southEast.13" depart="189.00" departLane="southJunction_0" departPos="5.10" departSpeed="0.51" departDelay="19.60" arrival="521.00" arrivalLane="junctionEast_0" arrivalPos="492.80" arrivalSpeed="22.13" duration="332.00" routeLength="989.53" waitingTime="0.00" waitingCount="0" stopTime="0.00" timeLoss="286.13" rerouteNo="0" devices="tripinfo_southEast.13 ssm_southEast.13" vType="carCustom" speedFactor="1.10" vaporized=""/>
    <tripinfo id="southEast.10" depart="143.00" departLane="southJunction_0" departPos="5.10" departSpeed="1.75" departDelay="7.81" arrival="528.00" arrivalLane="junctionEast_0" arrivalPos="492.80" arrivalSpeed="22.15" duration="385.00" routeLength="989.53" waitingTime="0.00" waitingCount="0" stopTime="0.00" timeLoss="338.95" rerouteNo="0" devices="tripinfo_southEast.10 ssm_southEast.10" vType="carCustom" speedFactor="0.87" vaporized=""/>
    <tripinfo id="southNorth.11" depart="170.00" departLane="southJunction_1" departPos="5.10" departSpeed="0.50" departDelay="25.70" arrival="528.00" arrivalLane="junctionNorth_0" arrivalPos="492.80" arrivalSpeed="21.78" duration="358.00" routeLength="995.01" waitingTime="0.00" waitingCount="0" stopTime="0.00" timeLoss="312.72" rerouteNo="0" devices="tripinfo_southNorth.11 ssm_southNorth.11" vType="carCustom" speedFactor="0.88" vaporized=""/>
    <tripinfo id="westEastTop.16" depart="103.00" departLane="westJunction_1" departPos="5.10" departSpeed="0.80" departDelay="0.69" arrival="534.00" arrivalLane="junctionEast_0" arrivalPos="492.80" arrivalSpeed="21.74" duration="431.00" routeLength="994.90" waitingTime="0.00" waitingCount="0" stopTime="0.00" timeLoss="385.42" rerouteNo="0" devices="tripinfo_westEastTop.16 ssm_westEastTop.16" vType="carCustom" speedFactor="0.97" vaporized=""/>