<?xml version="1.0" encoding="UTF-8"?>

<!-- generated on 2025-04-29 02:33:17 by Eclipse SUMO sumo Version 1.20.0
<configuration xmlns:xsi="http://www.w3.org/2001/XMLSchema-instance" xsi:noNamespaceSchemaLocation="http://sumo.dlr.de/xsd/sumoConfiguration.xsd">

    <input>
        <net-file value="nets/2lane_unprotected_right/2lane_unprotected_right.net.xml"/>
        <route-files value="nets/2lane_unprotected_right/2lane_unprotected_right.rou.xml"/>
    </input>

    <output>
        <tripinfo-output value="traces/transs50f1_s50_f0.5_random/0003_tripinfo.xml"/>
        <collision-output value="traces/transs50f1_s50_f0.5_random/0003_collisions.xml"/>
        <statistic-output value="traces/transs50f1_s50_f0.5_random/0003_statistics.xml"/>
    </output>

    <processing>
        <collision.action value="teleport"/>
        <collision.check-junctions value="true"/>
        <time-to-teleport value="-1"/>
        <waiting-time-memory value="1000"/>
        <max-depart-delay value="-1"/>
        <default.speeddev value="0.1"/>
    </processing>

    <report>
        <no-warnings value="true"/>
    </report>

    <ssm_device>
        <device.ssm.probability value="1.0"/>
        <device.ssm.measures value="BR"/>
        <device.ssm.file value="/Users/finn/Code/CausalKnowledgeTransfer-4-SafeRL/traces/transs50f1_s50_f0.5_random/0003_ssm.xml"/>
    </ssm_device>

    <traci_server>
        <remote-port value="62428"/>
    </traci_server>

    <random_number>
        <random value="true"/>
    </random_number>

</configuration>
-->

<tripinfos xmlns:xsi="http://www.w3.org/2001/XMLSchema-instance" xsi:noNamespaceSchemaLocation="http://sumo.dlr.de/xsd/tripinfo_file.xsd">
    <tripinfo id="westEastTop.0" depart="1.00" departLane="westJunction_1" departPos="5.10" departSpeed="27.78" departDelay="0.97" arrival="38.00" arrivalLane="junctionEast_1" arrivalPos="492.80" arrivalSpeed="27.19" duration="37.00" routeLength="994.90" waitingTime="0.00" waitingCount="0" stopTime="0.00" timeLoss="0.87" rerouteNo="0" devices="tripinfo_westEastTop.0 ssm_westEastTop.0" vType="carCustom" speedFactor="1.09" vaporized=""/>
    <tripinfo id="southNorth.0" depart="3.00" departLane="southJunction_1" departPos="5.10" departSpeed="27.78" departDelay="0.00" arrival="44.00" arrivalLane="junctionNorth_0" arrivalPos="492.80" arrivalSpeed="26.53" duration="41.00" routeLength="995.01" waitingTime="0.00" waitingCount="0" stopTime="0.00" timeLoss="4.97" rerouteNo="0" devices="tripinfo_southNorth.0 ssm_southNorth.0" vType="carCustom" speedFactor="0.88" vaporized=""/>
    <tripinfo id="southEast.0" depart="1.00" departLane="southJunction_0" departPos="5.10" departSpeed="27.78" departDelay="0.30" arrival="48.00" arrivalLane="junctionEast_0" arrivalPos="492.80" arrivalSpeed="27.67" duration="47.00" routeLength="989.53" waitingTime="0.00" waitingCount="0" stopTime="0.00" timeLoss="10.34" rerouteNo="0" devices="tripinfo_southEast.0 ssm_southEast.0" vType="carCustom" speedFactor="1.02" vaporized=""/>
    <tripinfo id="westEastTop.1" depart="5.00" departLane="westJunction_1" departPos="5.10" departSpeed="27.28" departDelay="0.98" arrival="49.00" arrivalLane="junctionEast_1" arrivalPos="492.80" arrivalSpeed="26.92" duration="44.00" routeLength="994.90" waitingTime="0.00" waitingCount="0" stopTime="0.00" timeLoss="7.64" rerouteNo="0" devices="tripinfo_westEastTop.1 ssm_westEastTop.1" vType="carCustom" speedFactor="0.89" vaporized=""/>
    <tripinfo id="southNorth.1" depart="12.00" departLane="southJunction_1" departPos="5.10" departSpeed="27.72" departDelay="0.13" arrival="55.00" arrivalLane="junctionNorth_0" arrivalPos="492.80" arrivalSpeed="27.70" duration="43.00" routeLength="995.01" waitingTime="0.00" waitingCount="0" stopTime="0.00" timeLoss="6.69" rerouteNo="0" devices="tripinfo_southNorth.1 ssm_southNorth.1" vType="carCustom" speedFactor="1.11" vaporized=""/>
    <tripinfo id="southEast.1" depart="14.00" departLane="southJunction_0" departPos="5.10" departSpeed="27.61" departDelay="0.30" arrival="58.00" arrivalLane="junctionEast_0" arrivalPos="492.80" arrivalSpeed="27.57" duration="44.00" routeLength="989.53" waitingTime="0.00" waitingCount="0" stopTime="0.00" timeLoss="6.41" rerouteNo="0" devices="tripinfo_southEast.1 ssm_southEast.1" vType="carCustom" speedFactor="0.95" vaporized=""/>
    <tripinfo id="westEastBottom0.0" depart="10.00" departLane="westJunction_0" departPos="5.10" departSpeed="27.78" departDelay="0.38" arrival="63.00" arrivalLane="junctionEast_1" arrivalPos="492.80" arrivalSpeed="27.58" duration="53.00" routeLength="994.90" waitingTime="0.00" waitingCount="0" stopTime="0.00" timeLoss="16.44" rerouteNo="0" devices="tripinfo_westEastBottom0.0 ssm_westEastBottom0.0" vType="carCustom" speedFactor="0.90" vaporized=""/>
    <tripinfo id="westEastBottom0.1" depart="12.00" departLane="westJunction_0" departPos="5.10" departSpeed="25.77" departDelay="0.40" arrival="64.00" arrivalLane="junctionEast_0" arrivalPos="492.80" arrivalSpeed="26.76" duration="52.00" routeLength="994.90" waitingTime="0.00" waitingCount="0" stopTime="0.00" timeLoss="15.98" rerouteNo="0" devices="tripinfo_westEastBottom0.1 ssm_westEastBottom0.1" vType="carCustom" speedFactor="0.93" vaporized=""/>
    <tripinfo id="westEastTop.2" depart="20.00" departLane="westJunction_1" departPos="5.10" departSpeed="19.73" departDelay="0.88" arrival="69.00" arrivalLane="junctionEast_1" arrivalPos="492.80" arrivalSpeed="26.84" duration="49.00" routeLength="994.90" waitingTime="0.00" waitingCount="0" stopTime="0.00" timeLoss="13.00" rerouteNo="0" devices="tripinfo_westEastTop.2 ssm_westEastTop.2" vType="carCustom" speedFactor="0.97" vaporized=""/>
    <tripinfo id="westEastTop.3" depart="22.00" departLane="westJunction_1" departPos="5.10" departSpeed="23.38" departDelay="0.00" arrival="76.00" arrivalLane="junctionEast_1" arrivalPos="492.80" arrivalSpeed="27.51" duration="54.00" routeLength="994.90" waitingTime="0.00" waitingCount="0" stopTime="0.00" timeLoss="17.24" rerouteNo="0" devices="tripinfo_westEastTop.3 ssm_westEastTop.3" vType="carCustom" speedFactor="1.00" vaporized=""/>
    <tripinfo id="westEastTop.4" depart="27.00" departLane="westJunction_1" departPos="5.10" departSpeed="15.23" departDelay="0.03" arrival="82.00" arrivalLane="junctionEast_1" arrivalPos="492.80" arrivalSpeed="26.69" duration="55.00" routeLength="994.90" waitingTime="0.00" waitingCount="0" stopTime="0.00" timeLoss="18.60" rerouteNo="0" devices="tripinfo_westEastTop.4 ssm_westEastTop.4" vType="carCustom" speedFactor="0.80" vaporized=""/>
    <tripinfo id="westEastTop.5" depart="33.00" departLane="westJunction_1" departPos="5.10" departSpeed="15.84" departDelay="0.14" arrival="88.00" arrivalLane="junctionEast_1" arrivalPos="492.80" arrivalSpeed="26.82" duration="55.00" routeLength="994.90" waitingTime="0.00" waitingCount="0" stopTime="0.00" timeLoss="18.86" rerouteNo="0" devices="tripinfo_westEastTop.5 ssm_westEastTop.5" vType="carCustom" speedFactor="1.20" vaporized=""/>
    <tripinfo id="southEast.2" depart="35.00" departLane="southJunction_0" departPos="5.10" departSpeed="12.56" departDelay="0.92" arrival="90.00" arrivalLane="junctionEast_0" arrivalPos="492.80" arrivalSpeed="27.76" duration="55.00" routeLength="989.53" waitingTime="2.00" waitingCount="1" stopTime="0.00" timeLoss="17.68" rerouteNo="0" devices="tripinfo_southEast.2 ssm_southEast.2" vType="carCustom" speedFactor="0.88" vaporized=""/>
    <tripinfo id="southNorth.2" depart="39.00" departLane="southJunction_1" departPos="5.10" departSpeed="27.78" departDelay="0.36" arrival="94.00" arrivalLane="junctionNorth_0" arrivalPos="492.80" arrivalSpeed="26.76" duration="55.00" routeLength="995.01" waitingTime="6.00" waitingCount="1" stopTime="0.00" timeLoss="18.27" rerouteNo="0" devices="tripinfo_southNorth.2 ssm_southNorth.2" vType="carCustom" speedFactor="0.98" vaporized=""/>
    <tripinfo id="westEastBottom0.4" depart="66.00" departLane="westJunction_0" departPos="5.10" departSpeed="18.61" departDelay="0.81" arrival="96.00" arrivalLane="junctionEast_0" arrivalPos="492.80" arrivalSpeed="14.39" duration="30.00" routeLength="994.90" waitingTime="0.00" waitingCount="0" stopTime="0.00" timeLoss="11.53" rerouteNo="0" devices="tripinfo_westEastBottom0.4 ssm_westEastBottom0.4" vType="carCustom" speedFactor="0.87" vaporized="teleport"/>
    <tripinfo id="southEast.3" depart="46.00" departLane="southJunction_0" departPos="5.10" departSpeed="27.38" departDelay="0.68" arrival="97.00" arrivalLane="junctionEast_0" arrivalPos="492.80" arrivalSpeed="27.64" duration="51.00" routeLength="989.53" waitingTime="0.00" waitingCount="0" stopTime="0.00" timeLoss="14.34" rerouteNo="0" devices="tripinfo_southEast.3 ssm_southEast.3" vType="carCustom" speedFactor="0.94" vaporized=""/>
    <tripinfo id="westEastBottom0.2" depart="39.00" departLane="westJunction_0" departPos="5.10" departSpeed="8.14" departDelay="0.27" arrival="99.00" arrivalLane="junctionEast_1" arrivalPos="492.80" arrivalSpeed="26.96" duration="60.00" routeLength="994.90" waitingTime="5.00" waitingCount="1" stopTime="0.00" timeLoss="23.65" rerouteNo="0" devices="tripinfo_westEastBottom0.2 ssm_westEastBottom0.2" vType="carCustom" speedFactor="0.92" vaporized=""/>
    <tripinfo id="westEastBottom0.3" depart="47.00" departLane="westJunction_0" departPos="5.10" departSpeed="18.79" departDelay="0.27" arrival="103.00" arrivalLane="junctionEast_0" arrivalPos="492.80" arrivalSpeed="27.09" duration="56.00" routeLength="994.90" waitingTime="0.00" waitingCount="0" stopTime="0.00" timeLoss="20.08" rerouteNo="0" devices="tripinfo_westEastBottom0.3 ssm_westEastBottom0.3" vType="carCustom" speedFactor="1.09" vaporized=""/>
    <tripinfo id="westEastTop.6" depart="36.00" departLane="westJunction_1" departPos="5.10" departSpeed="14.69" departDelay="0.81" arrival="105.00" arrivalLane="junctionEast_1" arrivalPos="492.80" arrivalSpeed="26.77" duration="69.00" routeLength="994.90" waitingTime="0.00" waitingCount="0" stopTime="0.00" timeLoss="32.93" rerouteNo="0" devices="tripinfo_westEastTop.6 ssm_westEastTop.6" vType="carCustom" speedFactor="1.04" vaporized=""/>
    <tripinfo id="southNorth.3" depart="53.00" departLane="southJunction_1" departPos="5.10" departSpeed="25.22" departDelay="0.05" arrival="107.00" arrivalLane="junctionNorth_0" arrivalPos="492.80" arrivalSpeed="27.58" duration="54.00" routeLength="995.01" waitingTime="3.00" waitingCount="1" stopTime="0.00" timeLoss="18.08" rerouteNo="0" devices="tripinfo_southNorth.3 ssm_southNorth.3" vType="carCustom" speedFactor="1.00" vaporized=""/>
    <tripinfo id="southEast.4" depart="55.00" departLane="southJunction_0" departPos="5.10" departSpeed="24.53" departDelay="0.68" arrival="110.00" arrivalLane="junctionEast_0" arrivalPos="492.80" arrivalSpeed="27.05" duration="55.00" routeLength="989.53" waitingTime="0.00" waitingCount="0" stopTime="0.00" timeLoss="17.75" rerouteNo="0" devices="tripinfo_southEast.4 ssm_southEast.4" vType="carCustom" speedFactor="1.03" vaporized=""/>
    <tripinfo id="westEastTop.7" depart="44.00" departLane="westJunction_1" departPos="5.10" departSpeed="12.90" departDelay="0.95" arrival="113.00" arrivalLane="junctionEast_1" arrivalPos="492.80" arrivalSpeed="26.85" duration="69.00" routeLength="994.90" waitingTime="4.00" waitingCount="1" stopTime="0.00" timeLoss="32.68" rerouteNo="0" devices="tripinfo_westEastTop.7 ssm_westEastTop.7" vType="carCustom" speedFactor="0.92" vaporized=""/>
    <tripinfo id="westEastTop.8" depart="49.00" departLane="westJunction_1" departPos="5.10" departSpeed="14.61" departDelay="0.29" arrival="119.00" arrivalLane="junctionEast_1" arrivalPos="492.80" arrivalSpeed="26.72" duration="70.00" routeLength="994.90" waitingTime="0.00" waitingCount="0" stopTime="0.00" timeLoss="33.85" rerouteNo="0" devices="tripinfo_westEastTop.8 ssm_westEastTop.8" vType="carCustom" speedFactor="0.95" vaporized=""/>
    <tripinfo id="southEast.5" depart="63.00" departLane="southJunction_0" departPos="5.10" departSpeed="22.39" departDelay="0.97" arrival="120.00" arrivalLane="junctionEast_0" arrivalPos="492.80" arrivalSpeed="27.21" duration="57.00" routeLength="989.53" waitingTime="0.00" waitingCount="0" stopTime="0.00" timeLoss="20.27" rerouteNo="0" devices="tripinfo_southEast.5 ssm_southEast.5" vType="carCustom" speedFactor="0.99" vaporized=""/>
    <tripinfo id="southNorth.4" depart="55.00" departLane="southJunction_1" departPos="5.10" departSpeed="26.63" departDelay="1.70" arrival="122.00" arrivalLane="junctionNorth_0" arrivalPos="492.80" arrivalSpeed="26.98" duration="67.00" routeLength="995.01" waitingTime="8.00" waitingCount="1" stopTime="0.00" timeLoss="31.04" rerouteNo="0" devices="tripinfo_southNorth.4 ssm_southNorth.4" vType="carCustom" speedFactor="1.09" vaporized=""/>
    <tripinfo id="westEastTop.9" depart="53.00" departLane="westJunction_1" departPos="5.10" departSpeed="13.27" departDelay="0.36" arrival="125.00" arrivalLane="junctionEast_1" arrivalPos="492.80" arrivalSpeed="27.55" duration="72.00" routeLength="994.90" waitingTime="0.00" waitingCount="0" stopTime="0.00" timeLoss="35.48" rerouteNo="0" devices="tripinfo_westEastTop.9 ssm_westEastTop.9" vType="carCustom" speedFactor="0.96" vaporized=""/>
    <tripinfo id="southEast.6" depart="65.00" departLane="southJunction_0" departPos="5.10" departSpeed="21.51" departDelay="2.43" arrival="130.00" arrivalLane="junctionEast_1" arrivalPos="492.80" arrivalSpeed="27.03" duration="65.00" routeLength="989.53" waitingTime="0.00" waitingCount="0" stopTime="0.00" timeLoss="28.01" rerouteNo="0" devices="tripinfo_southEast.6 ssm_southEast.6" vType="carCustom" speedFactor="1.05" vaporized=""/>
    <tripinfo id="southNorth.5" depart="57.00" departLane="southJunction_1" departPos="5.10" departSpeed="21.40" departDelay="2.87" arrival="133.00" arrivalLane="junctionNorth_0" arrivalPos="492.80" arrivalSpeed="26.61" duration="76.00" routeLength="995.01" waitingTime="6.00" waitingCount="2" stopTime="0.00" timeLoss="39.24" rerouteNo="0" devices="tripinfo_southNorth.5 ssm_southNorth.5" vType="carCustom" speedFactor="1.02" vaporized=""/>
    <tripinfo id="westEastTop.10" depart="55.00" departLane="westJunction_1" departPos="5.10" departSpeed="12.27" departDelay="1.36" arrival="135.00" arrivalLane="junctionEast_1" arrivalPos="492.80" arrivalSpeed="27.31" duration="80.00" routeLength="994.90" waitingTime="0.00" waitingCount="0" stopTime="0.00" timeLoss="43.40" rerouteNo="0" devices="tripinfo_westEastTop.10 ssm_westEastTop.10" vType="carCustom" speedFactor="0.90" vaporized=""/>
    <tripinfo id="southNorth.6" depart="59.00" departLane="southJunction_1" departPos="5.10" departSpeed="16.17" departDelay="2.40" arrival="139.00" arrivalLane="junctionNorth_0" arrivalPos="492.80" arrivalSpeed="26.70" duration="80.00" routeLength="995.01" waitingTime="2.00" waitingCount="1" stopTime="0.00" timeLoss="43.38" rerouteNo="0" devices="tripinfo_southNorth.6 ssm_southNorth.6" vType="carCustom" speedFactor="1.04" vaporized=""/>
    <tripinfo id="southEast.7" depart="82.00" departLane="southJunction_0" departPos="5.10" departSpeed="14.77" departDelay="0.71" arrival="140.00" arrivalLane="junctionEast_1" arrivalPos="492.80" arrivalSpeed="27.52" duration="58.00" routeLength="989.53" waitingTime="0.00" waitingCount="0" stopTime="0.00" timeLoss="21.50" rerouteNo="0" devices="tripinfo_southEast.7 ssm_southEast.7" vType="carCustom" speedFactor="0.91" vaporized=""/>
    <tripinfo id="westEastTop.11" depart="60.00" departLane="westJunction_1" departPos="5.10" departSpeed="9.58" departDelay="0.88" arrival="145.00" arrivalLane="junctionEast_1" arrivalPos="492.80" arrivalSpeed="27.37" duration="85.00" routeLength="994.90" waitingTime="3.00" waitingCount="1" stopTime="0.00" timeLoss="48.58" rerouteNo="0" devices="tripinfo_westEastTop.11 ssm_westEastTop.11" vType="carCustom" speedFactor="1.13" vaporized=""/>
    <tripinfo id="southNorth.7" depart="61.00" departLane="southJunction_1" departPos="5.10" departSpeed="11.35" departDelay="3.68" arrival="147.00" arrivalLane="junctionNorth_0" arrivalPos="492.80" arrivalSpeed="27.57" duration="86.00" routeLength="995.01" waitingTime="6.00" waitingCount="1" stopTime="0.00" timeLoss="49.89" rerouteNo="0" devices="tripinfo_southNorth.7 ssm_southNorth.7" vType="carCustom" speedFactor="0.95" vaporized=""/>
    <tripinfo id="westEastTop.12" depart="63.00" departLane="westJunction_1" departPos="5.10" departSpeed="9.03" departDelay="0.29" arrival="150.00" arrivalLane="junctionEast_1" arrivalPos="492.80" arrivalSpeed="26.83" duration="87.00" routeLength="994.90" waitingTime="0.00" waitingCount="0" stopTime="0.00" timeLoss="50.80" rerouteNo="0" devices="tripinfo_westEastTop.12 ssm_westEastTop.12" vType="carCustom" speedFactor="0.95" vaporized=""/>
    <tripinfo id="westEastTop.13" depart="76.00" departLane="westJunction_1" departPos="5.10" departSpeed="9.44" departDelay="0.86" arrival="152.00" arrivalLane="junctionEast_0" arrivalPos="492.80" arrivalSpeed="27.55" duration="76.00" routeLength="994.90" waitingTime="0.00" waitingCount="0" stopTime="0.00" timeLoss="39.86" rerouteNo="0" devices="tripinfo_westEastTop.13 ssm_westEastTop.13" vType="carCustom" speedFactor="1.22" vaporized=""/>
    <tripinfo id="southNorth.8" depart="63.00" departLane="southJunction_1" departPos="5.10" departSpeed="7.31" departDelay="1.95" arrival="153.00" arrivalLane="junctionNorth_0" arrivalPos="492.80" arrivalSpeed="26.63" duration="90.00" routeLength="995.01" waitingTime="3.00" waitingCount="1" stopTime="0.00" timeLoss="54.16" rerouteNo="0" devices="tripinfo_southNorth.8 ssm_southNorth.8" vType="carCustom" speedFactor="0.94" vaporized=""/>
    <tripinfo id="westEastBottom0.5" depart="89.00" departLane="westJunction_0" departPos="5.10" departSpeed="15.49" departDelay="0.88" arrival="156.00" arrivalLane="junctionEast_1" arrivalPos="492.80" arrivalSpeed="27.00" duration="67.00" routeLength="994.90" waitingTime="1.00" waitingCount="1" stopTime="0.00" timeLoss="30.84" rerouteNo="0" devices="tripinfo_westEastBottom0.5 ssm_westEastBottom0.5" vType="carCustom" speedFactor="0.98" vaporized=""/>
    <tripinfo id="westEastBottom0.6" depart="106.00" departLane="westJunction_0" departPos="5.10" departSpeed="27.78" departDelay="0.33" arrival="158.00" arrivalLane="junctionEast_0" arrivalPos="492.80" arrivalSpeed="27.69" duration="52.00" routeLength="994.90" waitingTime="0.00" waitingCount="0" stopTime="0.00" timeLoss="15.65" rerouteNo="0" devices="tripinfo_westEastBottom0.6 ssm_westEastBottom0.6" vType="carCustom" speedFactor="1.12" vaporized=""/>
    <tripinfo id="southNorth.9" depart="66.00" departLane="southJunction_1" departPos="5.10" departSpeed="5.11" departDelay="3.93" arrival="160.00" arrivalLane="junctionNorth_0" arrivalPos="492.80" arrivalSpeed="27.15" duration="94.00" routeLength="995.01" waitingTime="2.00" waitingCount="2" stopTime="0.00" timeLoss="57.47" rerouteNo="0" devices="tripinfo_southNorth.9 ssm_southNorth.9" vType="carCustom" speedFactor="0.99" vaporized=""/>
    <tripinfo id="westEastTop.14" depart="96.00" departLane="westJunction_1" departPos="5.10" departSpeed="18.56" departDelay="0.73" arrival="164.00" arrivalLane="junctionEast_1" arrivalPos="492.80" arrivalSpeed="26.81" duration="68.00" routeLength="994.90" waitingTime="3.00" waitingCount="1" stopTime="0.00" timeLoss="31.57" rerouteNo="0" devices="tripinfo_westEastTop.14 ssm_westEastTop.14" vType="carCustom" speedFactor="1.11" vaporized=""/>
    <tripinfo id="southEast.8" depart="117.00" departLane="southJunction_0" departPos="5.10" departSpeed="27.78" departDelay="0.27" arrival="168.00" arrivalLane="junctionEast_0" arrivalPos="492.80" arrivalSpeed="26.90" duration="51.00" routeLength="989.53" waitingTime="0.00" waitingCount="0" stopTime="0.00" timeLoss="13.94" rerouteNo="0" devices="tripinfo_southEast.8 ssm_southEast.8" vType="carCustom" speedFactor="1.01" vaporized=""/>
    <tripinfo id="southNorth.10" depart="90.00" departLane="southJunction_1" departPos="5.10" departSpeed="11.20" departDelay="0.58" arrival="169.00" arrivalLane="junctionNorth_0" arrivalPos="492.80" arrivalSpeed="27.24" duration="79.00" routeLength="995.01" waitingTime="5.00" waitingCount="1" stopTime="0.00" timeLoss="42.47" rerouteNo="0" devices="tripinfo_southNorth.10 ssm_southNorth.10" vType="carCustom" speedFactor="1.06" vaporized=""/>
    <tripinfo id="westEastTop.15" depart="98.00" departLane="westJunction_1" departPos="5.10" departSpeed="18.24" departDelay="0.67" arrival="173.00" arrivalLane="junctionEast_1" arrivalPos="492.80" arrivalSpeed="27.23" duration="75.00" routeLength="994.90" waitingTime="5.00" waitingCount="1" stopTime="0.00" timeLoss="38.23" rerouteNo="0" devices="tripinfo_westEastTop.15 ssm_westEastTop.15" vType="carCustom" speedFactor="1.08" vaporized=""/>
    <tripinfo id="westEastTop.16" depart="105.00" departLane="westJunction_1" departPos="5.10" departSpeed="13.39" departDelay="0.32" arrival="179.00" arrivalLane="junctionEast_1" arrivalPos="492.80" arrivalSpeed="26.73" duration="74.00" routeLength="994.90" waitingTime="0.00" waitingCount="0" stopTime="0.00" timeLoss="37.40" rerouteNo="0" devices="tripinfo_westEastTop.16 ssm_westEastTop.16" vType="carCustom" speedFactor="0.88" vaporized=""/>
    <tripinfo id="southEast.9" depart="125.00" departLane="southJunction_0" departPos="5.10" departSpeed="18.43" departDelay="0.64" arrival="180.00" arrivalLane="junctionEast_0" arrivalPos="492.80" arrivalSpeed="27.59" duration="55.00" routeLength="989.53" waitingTime="0.00" waitingCount="0" stopTime="0.00" timeLoss="17.61" rerouteNo="0" devices="tripinfo_southEast.9 ssm_southEast.9" vType="carCustom" speedFactor="1.10" vaporized=""/>
    <tripinfo id="southNorth.11" depart="98.00" departLane="southJunction_1" departPos="5.10" departSpeed="18.27" departDelay="0.03" arrival="182.00" arrivalLane="junctionNorth_0" arrivalPos="492.80" arrivalSpeed="26.74" duration="84.00" routeLength="995.01" waitingTime="13.00" waitingCount="2" stopTime="0.00" timeLoss="48.17" rerouteNo="0" devices="tripinfo_southNorth.11 ssm_southNorth.11" vType="carCustom" speedFactor="1.07" vaporized=""/>
    <tripinfo id="westEastTop.17" depart="107.00" departLane="westJunction_1" departPos="5.10" departSpeed="15.18" departDelay="0.61" arrival="184.00" arrivalLane="junctionEast_1" arrivalPos="492.80" arrivalSpeed="26.72" duration="77.00" routeLength="994.90" waitingTime="0.00" waitingCount="0" stopTime="0.00" timeLoss="41.12" rerouteNo="0" devices="tripinfo_westEastTop.17 ssm_westEastTop.17" vType="carCustom" speedFactor="1.07" vaporized=""/>
    <tripinfo id="southNorth.12" depart="100.00" departLane="southJunction_1" departPos="5.10" departSpeed="19.27" departDelay="0.49" arrival="188.00" arrivalLane="junctionNorth_0" arrivalPos="492.80" arrivalSpeed="26.82" duration="88.00" routeLength="995.01" waitingTime="8.00" waitingCount="1" stopTime="0.00" timeLoss="52.15" rerouteNo="0" devices="tripinfo_southNorth.12 ssm_southNorth.12" vType="carCustom" speedFactor="0.99" vaporized=""/>
    <tripinfo id="westEastBottom0.7" depart="129.00" departLane="westJunction_0" departPos="5.10" departSpeed="18.17" departDelay="0.20" arrival="190.00" arrivalLane="junctionEast_1" arrivalPos="492.80" arrivalSpeed="27.25" duration="61.00" routeLength="994.90" waitingTime="5.00" waitingCount="1" stopTime="0.00" timeLoss="24.53" rerouteNo="0" devices="tripinfo_westEastBottom0.7 ssm_westEastBottom0.7" vType="carCustom" speedFactor="1.02" vaporized=""/>
    <tripinfo id="southNorth.13" depart="102.00" departLane="southJunction_1" departPos="5.10" departSpeed="14.46" departDelay="1.51" arrival="195.00" arrivalLane="junctionNorth_0" arrivalPos="492.80" arrivalSpeed="26.83" duration="93.00" routeLength="995.01" waitingTime="9.00" waitingCount="2" stopTime="0.00" timeLoss="56.65" rerouteNo="0" devices="tripinfo_southNorth.13 ssm_southNorth.13" vType="carCustom" speedFactor="0.96" vaporized=""/>
    <tripinfo id="westEastTop.18" depart="109.00" departLane="westJunction_1" departPos="5.10" departSpeed="10.58" departDelay="0.30" arrival="195.00" arrivalLane="junctionEast_1" arrivalPos="492.80" arrivalSpeed="27.01" duration="86.00" routeLength="994.90" waitingTime="2.00" waitingCount="1" stopTime="0.00" timeLoss="49.90" rerouteNo="0" devices="tripinfo_westEastTop.18 ssm_westEastTop.18" vType="carCustom" speedFactor="1.03" vaporized=""/>
    <tripinfo id="southEast.10" depart="127.00" departLane="southJunction_0" departPos="5.10" departSpeed="19.37" departDelay="1.69" arrival="197.00" arrivalLane="junctionEast_0" arrivalPos="492.80" arrivalSpeed="27.41" duration="70.00" routeLength="989.53" waitingTime="5.00" waitingCount="1" stopTime="0.00" timeLoss="32.81" rerouteNo="0" devices="tripinfo_southEast.10 ssm_southEast.10" vType="carCustom" speedFactor="1.15" vaporized=""/>
    <tripinfo id="westEastTop.19" depart="121.00" departLane="westJunction_1" departPos="5.10" departSpeed="11.26" departDelay="0.80" arrival="201.00" arrivalLane="junctionEast_1" arrivalPos="492.80" arrivalSpeed="27.64" duration="80.00" routeLength="994.90" waitingTime="5.00" waitingCount="1" stopTime="0.00" timeLoss="43.84" rerouteNo="0" devices="tripinfo_westEastTop.19 ssm_westEastTop.19" vType="carCustom" speedFactor="1.07" vaporized=""/>
    <tripinfo id="westEastBottom0.8" depart="131.00" departLane="westJunction_0" departPos="5.10" departSpeed="18.65" departDelay="0.63" arrival="202.00" arrivalLane="junctionEast_0" arrivalPos="492.80" arrivalSpeed="27.35" duration="71.00" routeLength="994.90" waitingTime="3.00" waitingCount="1" stopTime="0.00" timeLoss="35.09" rerouteNo="0" devices="tripinfo_westEastBottom0.8 ssm_westEastBottom0.8" vType="carCustom" speedFactor="1.06" vaporized=""/>
    <tripinfo id="southNorth.14" depart="110.00" departLane="southJunction_1" departPos="5.10" departSpeed="11.00" departDelay="0.04" arrival="203.00" arrivalLane="junctionNorth_0" arrivalPos="492.80" arrivalSpeed="27.59" duration="93.00" routeLength="995.01" waitingTime="10.00" waitingCount="2" stopTime="0.00" timeLoss="56.19" rerouteNo="0" devices="tripinfo_southNorth.14 ssm_southNorth.14" vType="carCustom" speedFactor="0.97" vaporized=""/>
    <tripinfo id="westEastTop.20" depart="126.00" departLane="westJunction_1" departPos="5.10" departSpeed="14.67" departDelay="0.74" arrival="207.00" arrivalLane="junctionEast_1" arrivalPos="492.80" arrivalSpeed="27.58" duration="81.00" routeLength="994.90" waitingTime="0.00" waitingCount="0" stopTime="0.00" timeLoss="44.49" rerouteNo="0" devices="tripinfo_westEastTop.20 ssm_westEastTop.20" vType="carCustom" speedFactor="0.82" vaporized=""/>
    <tripinfo id="southEast.11" depart="144.00" departLane="southJunction_0" departPos="5.10" departSpeed="15.83" departDelay="0.58" arrival="208.00" arrivalLane="junctionEast_0" arrivalPos="492.80" arrivalSpeed="27.05" duration="64.00" routeLength="989.53" waitingTime="1.00" waitingCount="1" stopTime="0.00" timeLoss="27.32" rerouteNo="0" devices="tripinfo_southEast.11 ssm_southEast.11" vType="carCustom" speedFactor="1.03" vaporized=""/>
    <tripinfo id="southNorth.15" depart="114.00" departLane="southJunction_1" departPos="5.10" departSpeed="13.93" departDelay="0.55" arrival="209.00" arrivalLane="junctionNorth_0" arrivalPos="492.80" arrivalSpeed="27.53" duration="95.00" routeLength="995.01" waitingTime="5.00" waitingCount="2" stopTime="0.00" timeLoss="58.34" rerouteNo="0" devices="tripinfo_southNorth.15 ssm_southNorth.15" vType="carCustom" speedFactor="1.15" vaporized=""/>
    <tripinfo id="southEast.13" depart="178.00" departLane="southJunction_0" departPos="5.10" departSpeed="23.64" departDelay="0.86" arrival="209.00" arrivalLane="junctionEast_0" arrivalPos="492.80" arrivalSpeed="5.87" duration="31.00" routeLength="989.53" waitingTime="0.00" waitingCount="0" stopTime="0.00" timeLoss="12.35" rerouteNo="0" devices="tripinfo_southEast.13 ssm_southEast.13" vType="carCustom" speedFactor="0.97" vaporized="teleport"/>
    <tripinfo id="westEastTop.21" depart="129.00" departLane="westJunction_1" departPos="5.10" departSpeed="13.86" departDelay="0.22" arrival="212.00" arrivalLane="junctionEast_1" arrivalPos="492.80" arrivalSpeed="27.49" duration="83.00" routeLength="994.90" waitingTime="1.00" waitingCount="1" stopTime="0.00" timeLoss="47.14" rerouteNo="0" devices="tripinfo_westEastTop.21 ssm_westEastTop.21" vType="carCustom" speedFactor="1.00" vaporized=""/>
    <tripinfo id="westEastBottom0.9" depart="133.00" departLane="westJunction_0" departPos="5.10" departSpeed="13.69" departDelay="0.22" arrival="214.00" arrivalLane="junctionEast_0" arrivalPos="492.80" arrivalSpeed="27.59" duration="81.00" routeLength="994.90" waitingTime="4.00" waitingCount="1" stopTime="0.00" timeLoss="44.33" rerouteNo="0" devices="tripinfo_westEastBottom0.9 ssm_westEastBottom0.9" vType="carCustom" speedFactor="1.12" vaporized=""/>
    <tripinfo id="southNorth.16" depart="116.00" departLane="southJunction_1" departPos="5.10" departSpeed="11.92" departDelay="0.73" arrival="215.00" arrivalLane="junctionNorth_0" arrivalPos="492.80" arrivalSpeed="27.44" duration="99.00" routeLength="995.01" waitingTime="3.00" waitingCount="2" stopTime="0.00" timeLoss="62.68" rerouteNo="0" devices="tripinfo_southNorth.16 ssm_southNorth.16" vType="carCustom" speedFactor="0.98" vaporized=""/>
    <tripinfo id="westEastTop.22" depart="131.00" departLane="westJunction_1" departPos="5.10" departSpeed="10.74" departDelay="1.22" arrival="219.00" arrivalLane="junctionEast_1" arrivalPos="492.80" arrivalSpeed="26.71" duration="88.00" routeLength="994.90" waitingTime="5.00" waitingCount="1" stopTime="0.00" timeLoss="51.74" rerouteNo="0" devices="tripinfo_westEastTop.22 ssm_westEastTop.22" vType="carCustom" speedFactor="1.00" vaporized=""/>