<?xml version="1.0" encoding="UTF-8"?>

<!-- generated on 2025-04-29 04:35:09 by Eclipse SUMO sumo Version 1.20.0
<configuration xmlns:xsi="http://www.w3.org/2001/XMLSchema-instance" xsi:noNamespaceSchemaLocation="http://sumo.dlr.de/xsd/sumoConfiguration.xsd">

    <input>
        <net-file value="nets/2lane_unprotected_right/2lane_unprotected_right.net.xml"/>
        <route-files value="nets/2lane_unprotected_right/2lane_unprotected_right.rou.xml"/>
    </input>

    <output>
        <tripinfo-output value="traces/transs50f1_s50_f0.5_random/0014_tripinfo.xml"/>
        <collision-output value="traces/transs50f1_s50_f0.5_random/0014_collisions.xml"/>
        <statistic-output value="traces/transs50f1_s50_f0.5_random/0014_statistics.xml"/>
    </output>

    <processing>
        <collision.action value="teleport"/>
        <collision.check-junctions value="true"/>
        <time-to-teleport value="-1"/>
        <waiting-time-memory value="1000"/>
        <max-depart-delay value="-1"/>
        <default.speeddev value="0.1"/>
    </processing>

    <report>
        <no-warnings value="true"/>
    </report>

    <ssm_device>
        <device.ssm.probability value="1.0"/>
        <device.ssm.measures value="BR"/>
        <device.ssm.file value="/Users/finn/Code/CausalKnowledgeTransfer-4-SafeRL/traces/transs50f1_s50_f0.5_random/0014_ssm.xml"/>
    </ssm_device>

    <traci_server>
        <remote-port value="62565"/>
    </traci_server>

    <random_number>
        <random value="true"/>
    </random_number>

</configuration>
-->

<tripinfos xmlns:xsi="http://www.w3.org/2001/XMLSchema-instance" xsi:noNamespaceSchemaLocation="http://sumo.dlr.de/xsd/tripinfo_file.xsd">
    <tripinfo id="southEast.3" depart="17.00" departLane="southJunction_0" departPos="5.10" departSpeed="22.08" departDelay="0.78" arrival="45.00" arrivalLane="junctionEast_0" arrivalPos="492.80" arrivalSpeed="5.83" duration="28.00" routeLength="989.53" waitingTime="0.00" waitingCount="0" stopTime="0.00" timeLoss="4.94" rerouteNo="0" devices="tripinfo_southEast.3 ssm_southEast.3" vType="carCustom" speedFactor="1.09" vaporized="teleport"/>
    <tripinfo id="westEastTop.0" depart="1.00" departLane="westJunction_1" departPos="5.10" departSpeed="22.22" departDelay="0.52" arrival="48.00" arrivalLane="junctionEast_0" arrivalPos="492.80" arrivalSpeed="21.08" duration="47.00" routeLength="994.90" waitingTime="0.00" waitingCount="0" stopTime="0.00" timeLoss="1.58" rerouteNo="0" devices="tripinfo_westEastTop.0 ssm_westEastTop.0" vType="carCustom" speedFactor="1.02" vaporized=""/>
    <tripinfo id="westEastTop.1" depart="4.00" departLane="westJunction_1" departPos="5.10" departSpeed="21.04" departDelay="0.58" arrival="51.00" arrivalLane="junctionEast_0" arrivalPos="492.80" arrivalSpeed="22.18" duration="47.00" routeLength="994.90" waitingTime="0.00" waitingCount="0" stopTime="0.00" timeLoss="1.38" rerouteNo="0" devices="tripinfo_westEastTop.1 ssm_westEastTop.1" vType="carCustom" speedFactor="0.97" vaporized=""/>
    <tripinfo id="southNorth.0" depart="5.00" departLane="southJunction_1" departPos="5.10" departSpeed="22.22" departDelay="0.51" arrival="53.00" arrivalLane="junctionNorth_0" arrivalPos="492.80" arrivalSpeed="21.00" duration="48.00" routeLength="995.01" waitingTime="0.00" waitingCount="0" stopTime="0.00" timeLoss="2.59" rerouteNo="0" devices="tripinfo_southNorth.0 ssm_southNorth.0" vType="carCustom" speedFactor="1.02" vaporized=""/>
    <tripinfo id="southEast.0" depart="1.00" departLane="southJunction_0" departPos="5.10" departSpeed="22.22" departDelay="0.94" arrival="56.00" arrivalLane="junctionEast_0" arrivalPos="492.80" arrivalSpeed="21.84" duration="55.00" routeLength="989.53" waitingTime="0.00" waitingCount="0" stopTime="0.00" timeLoss="9.01" rerouteNo="0" devices="tripinfo_southEast.0 ssm_southEast.0" vType="carCustom" speedFactor="1.05" vaporized=""/>
    <tripinfo id="southEast.1" depart="6.00" departLane="southJunction_0" departPos="5.10" departSpeed="20.97" departDelay="0.47" arrival="60.00" arrivalLane="junctionEast_0" arrivalPos="492.80" arrivalSpeed="21.47" duration="54.00" routeLength="989.53" waitingTime="0.00" waitingCount="0" stopTime="0.00" timeLoss="7.65" rerouteNo="0" devices="tripinfo_southEast.1 ssm_southEast.1" vType="carCustom" speedFactor="0.97" vaporized=""/>
    <tripinfo id="westEastTop.2" depart="6.00" departLane="westJunction_1" departPos="5.10" departSpeed="21.50" departDelay="1.82" arrival="61.00" arrivalLane="junctionEast_1" arrivalPos="492.80" arrivalSpeed="21.30" duration="55.00" routeLength="994.90" waitingTime="0.00" waitingCount="0" stopTime="0.00" timeLoss="9.45" rerouteNo="0" devices="tripinfo_westEastTop.2 ssm_westEastTop.2" vType="carCustom" speedFactor="1.17" vaporized=""/>
    <tripinfo id="westEastTop.3" depart="16.00" departLane="westJunction_1" departPos="5.10" departSpeed="21.23" departDelay="0.89" arrival="63.00" arrivalLane="junctionEast_0" arrivalPos="492.80" arrivalSpeed="21.15" duration="47.00" routeLength="994.90" waitingTime="0.00" waitingCount="0" stopTime="0.00" timeLoss="1.98" rerouteNo="0" devices="tripinfo_westEastTop.3 ssm_westEastTop.3" vType="carCustom" speedFactor="0.93" vaporized=""/>
    <tripinfo id="westEastTop.4" depart="18.00" departLane="westJunction_1" departPos="5.10" departSpeed="21.07" departDelay="0.94" arrival="66.00" arrivalLane="junctionEast_0" arrivalPos="492.80" arrivalSpeed="21.46" duration="48.00" routeLength="994.90" waitingTime="0.00" waitingCount="0" stopTime="0.00" timeLoss="2.44" rerouteNo="0" devices="tripinfo_westEastTop.4 ssm_westEastTop.4" vType="carCustom" speedFactor="0.90" vaporized=""/>
    <tripinfo id="southEast.2" depart="15.00" departLane="southJunction_0" departPos="5.10" departSpeed="21.00" departDelay="0.70" arrival="68.00" arrivalLane="junctionEast_0" arrivalPos="492.80" arrivalSpeed="21.23" duration="53.00" routeLength="989.53" waitingTime="0.00" waitingCount="0" stopTime="0.00" timeLoss="7.36" rerouteNo="0" devices="tripinfo_southEast.2 ssm_southEast.2" vType="carCustom" speedFactor="0.99" vaporized=""/>
    <tripinfo id="westEastTop.5" depart="20.00" departLane="westJunction_1" departPos="5.10" departSpeed="19.76" departDelay="1.13" arrival="68.00" arrivalLane="junctionEast_1" arrivalPos="492.80" arrivalSpeed="21.54" duration="48.00" routeLength="994.90" waitingTime="0.00" waitingCount="0" stopTime="0.00" timeLoss="2.83" rerouteNo="0" devices="tripinfo_westEastTop.5 ssm_westEastTop.5" vType="carCustom" speedFactor="1.05" vaporized=""/>
    <tripinfo id="westEastBottom0.0" depart="20.00" departLane="westJunction_0" departPos="5.10" departSpeed="22.22" departDelay="0.89" arrival="70.00" arrivalLane="junctionEast_0" arrivalPos="492.80" arrivalSpeed="21.54" duration="50.00" routeLength="994.90" waitingTime="0.00" waitingCount="0" stopTime="0.00" timeLoss="5.05" rerouteNo="0" devices="tripinfo_westEastBottom0.0 ssm_westEastBottom0.0" vType="carCustom" speedFactor="0.96" vaporized=""/>
    <tripinfo id="westEastTop.6" depart="24.00" departLane="westJunction_1" departPos="5.10" departSpeed="20.01" departDelay="0.70" arrival="71.00" arrivalLane="junctionEast_1" arrivalPos="492.80" arrivalSpeed="22.02" duration="47.00" routeLength="994.90" waitingTime="0.00" waitingCount="0" stopTime="0.00" timeLoss="1.36" rerouteNo="0" devices="tripinfo_westEastTop.6 ssm_westEastTop.6" vType="carCustom" speedFactor="1.09" vaporized=""/>
    <tripinfo id="westEastBottom0.1" depart="28.00" departLane="westJunction_0" departPos="5.10" departSpeed="21.10" departDelay="0.38" arrival="75.00" arrivalLane="junctionEast_0" arrivalPos="492.80" arrivalSpeed="21.35" duration="47.00" routeLength="994.90" waitingTime="0.00" waitingCount="0" stopTime="0.00" timeLoss="1.45" rerouteNo="0" devices="tripinfo_westEastBottom0.1 ssm_westEastBottom0.1" vType="carCustom" speedFactor="0.97" vaporized=""/>
    <tripinfo id="westEastTop.7" depart="32.00" departLane="westJunction_1" departPos="5.10" departSpeed="21.30" departDelay="0.10" arrival="78.00" arrivalLane="junctionEast_0" arrivalPos="492.80" arrivalSpeed="21.94" duration="46.00" routeLength="994.90" waitingTime="0.00" waitingCount="0" stopTime="0.00" timeLoss="1.14" rerouteNo="0" devices="tripinfo_westEastTop.7 ssm_westEastTop.7" vType="carCustom" speedFactor="1.09" vaporized=""/>
    <tripinfo id="westEastTop.8" depart="34.00" departLane="westJunction_1" departPos="5.10" departSpeed="21.24" departDelay="1.93" arrival="81.00" arrivalLane="junctionEast_0" arrivalPos="492.80" arrivalSpeed="20.96" duration="47.00" routeLength="994.90" waitingTime="0.00" waitingCount="0" stopTime="0.00" timeLoss="1.59" rerouteNo="0" devices="tripinfo_westEastTop.8 ssm_westEastTop.8" vType="carCustom" speedFactor="0.96" vaporized=""/>
    <tripinfo id="southNorth.1" depart="34.00" departLane="southJunction_1" departPos="5.10" departSpeed="22.22" departDelay="0.38" arrival="86.00" arrivalLane="junctionNorth_0" arrivalPos="492.80" arrivalSpeed="21.34" duration="52.00" routeLength="995.01" waitingTime="0.00" waitingCount="0" stopTime="0.00" timeLoss="7.00" rerouteNo="0" devices="tripinfo_southNorth.1 ssm_southNorth.1" vType="carCustom" speedFactor="1.09" vaporized=""/>
    <tripinfo id="southNorth.2" depart="37.00" departLane="southJunction_1" departPos="5.10" departSpeed="21.38" departDelay="0.67" arrival="89.00" arrivalLane="junctionNorth_0" arrivalPos="492.80" arrivalSpeed="21.97" duration="52.00" routeLength="995.01" waitingTime="0.00" waitingCount="0" stopTime="0.00" timeLoss="6.40" rerouteNo="0" devices="tripinfo_southNorth.2 ssm_southNorth.2" vType="carCustom" speedFactor="1.07" vaporized=""/>
    <tripinfo id="westEastTop.9" depart="41.00" departLane="westJunction_1" departPos="5.10" departSpeed="20.95" departDelay="0.74" arrival="90.00" arrivalLane="junctionEast_0" arrivalPos="492.80" arrivalSpeed="21.31" duration="49.00" routeLength="994.90" waitingTime="0.00" waitingCount="0" stopTime="0.00" timeLoss="3.68" rerouteNo="0" devices="tripinfo_westEastTop.9 ssm_westEastTop.9" vType="carCustom" speedFactor="0.99" vaporized=""/>
    <tripinfo id="westEastBottom0.2" depart="39.00" departLane="westJunction_0" departPos="5.10" departSpeed="21.54" departDelay="0.69" arrival="92.00" arrivalLane="junctionEast_0" arrivalPos="492.80" arrivalSpeed="21.04" duration="53.00" routeLength="994.90" waitingTime="0.00" waitingCount="0" stopTime="0.00" timeLoss="7.81" rerouteNo="0" devices="tripinfo_westEastBottom0.2 ssm_westEastBottom0.2" vType="carCustom" speedFactor="0.81" vaporized=""/>
    <tripinfo id="westEastTop.10" depart="43.00" departLane="westJunction_1" departPos="5.10" departSpeed="21.87" departDelay="2.39" arrival="92.00" arrivalLane="junctionEast_1" arrivalPos="492.80" arrivalSpeed="21.04" duration="49.00" routeLength="994.90" waitingTime="0.00" waitingCount="0" stopTime="0.00" timeLoss="3.93" rerouteNo="0" devices="tripinfo_westEastTop.10 ssm_westEastTop.10" vType="carCustom" speedFactor="1.02" vaporized=""/>
    <tripinfo id="southEast.4" depart="45.00" departLane="southJunction_0" departPos="5.10" departSpeed="22.22" departDelay="0.37" arrival="98.00" arrivalLane="junctionEast_0" arrivalPos="492.80" arrivalSpeed="21.73" duration="53.00" routeLength="989.53" waitingTime="0.00" waitingCount="0" stopTime="0.00" timeLoss="6.89" rerouteNo="0" devices="tripinfo_southEast.4 ssm_southEast.4" vType="carCustom" speedFactor="0.99" vaporized=""/>
    <tripinfo id="southNorth.3" depart="39.00" departLane="southJunction_1" departPos="5.10" departSpeed="21.26" departDelay="2.05" arrival="99.00" arrivalLane="junctionNorth_0" arrivalPos="492.80" arrivalSpeed="21.15" duration="60.00" routeLength="995.01" waitingTime="1.00" waitingCount="1" stopTime="0.00" timeLoss="14.75" rerouteNo="0" devices="tripinfo_southNorth.3 ssm_southNorth.3" vType="carCustom" speedFactor="1.06" vaporized=""/>
    <tripinfo id="westEastTop.11" depart="45.00" departLane="westJunction_1" departPos="5.10" departSpeed="21.57" departDelay="2.18" arrival="103.00" arrivalLane="junctionEast_0" arrivalPos="492.80" arrivalSpeed="21.08" duration="58.00" routeLength="994.90" waitingTime="1.00" waitingCount="1" stopTime="0.00" timeLoss="12.69" rerouteNo="0" devices="tripinfo_westEastTop.11 ssm_westEastTop.11" vType="carCustom" speedFactor="1.08" vaporized=""/>
    <tripinfo id="westEastTop.12" depart="50.00" departLane="westJunction_1" departPos="5.10" departSpeed="21.00" departDelay="0.84" arrival="105.00" arrivalLane="junctionEast_0" arrivalPos="492.80" arrivalSpeed="21.23" duration="55.00" routeLength="994.90" waitingTime="0.00" waitingCount="0" stopTime="0.00" timeLoss="10.04" rerouteNo="0" devices="tripinfo_westEastTop.12 ssm_westEastTop.12" vType="carCustom" speedFactor="0.76" vaporized=""/>
    <tripinfo id="westEastTop.13" depart="53.00" departLane="westJunction_1" departPos="5.10" departSpeed="21.43" departDelay="0.63" arrival="107.00" arrivalLane="junctionEast_0" arrivalPos="492.80" arrivalSpeed="21.35" duration="54.00" routeLength="994.90" waitingTime="0.00" waitingCount="0" stopTime="0.00" timeLoss="8.83" rerouteNo="0" devices="tripinfo_westEastTop.13 ssm_westEastTop.13" vType="carCustom" speedFactor="0.98" vaporized=""/>
    <tripinfo id="westEastTop.14" depart="55.00" departLane="westJunction_1" departPos="5.10" departSpeed="22.06" departDelay="1.13" arrival="109.00" arrivalLane="junctionEast_0" arrivalPos="492.80" arrivalSpeed="21.62" duration="54.00" routeLength="994.90" waitingTime="0.00" waitingCount="0" stopTime="0.00" timeLoss="8.98" rerouteNo="0" devices="tripinfo_westEastTop.14 ssm_westEastTop.14" vType="carCustom" speedFactor="1.07" vaporized=""/>
    <tripinfo id="southNorth.4" depart="55.00" departLane="southJunction_1" departPos="5.10" departSpeed="20.92" departDelay="0.77" arrival="113.00" arrivalLane="junctionNorth_0" arrivalPos="492.80" arrivalSpeed="22.21" duration="58.00" routeLength="995.01" waitingTime="3.00" waitingCount="1" stopTime="0.00" timeLoss="12.35" rerouteNo="0" devices="tripinfo_southNorth.4 ssm_southNorth.4" vType="carCustom" speedFactor="1.11" vaporized=""/>
    <tripinfo id="westEastTop.15" depart="64.00" departLane="westJunction_1" departPos="5.10" departSpeed="21.38" departDelay="0.96" arrival="116.00" arrivalLane="junctionEast_0" arrivalPos="492.80" arrivalSpeed="21.40" duration="52.00" routeLength="994.90" waitingTime="0.00" waitingCount="0" stopTime="0.00" timeLoss="7.20" rerouteNo="0" devices="tripinfo_westEastTop.15 ssm_westEastTop.15" vType="carCustom" speedFactor="0.87" vaporized=""/>
    <tripinfo id="westEastTop.16" depart="66.00" departLane="westJunction_1" departPos="5.10" departSpeed="21.62" departDelay="2.13" arrival="119.00" arrivalLane="junctionEast_0" arrivalPos="492.80" arrivalSpeed="22.03" duration="53.00" routeLength="994.90" waitingTime="0.00" waitingCount="0" stopTime="0.00" timeLoss="7.33" rerouteNo="0" devices="tripinfo_westEastTop.16 ssm_westEastTop.16" vType="carCustom" speedFactor="1.08" vaporized=""/>
    <tripinfo id="westEastBottom0.3" depart="70.00" departLane="westJunction_0" departPos="5.10" departSpeed="22.22" departDelay="0.33" arrival="120.00" arrivalLane="junctionEast_0" arrivalPos="492.80" arrivalSpeed="20.69" duration="50.00" routeLength="994.90" waitingTime="0.00" waitingCount="0" stopTime="0.00" timeLoss="4.98" rerouteNo="0" devices="tripinfo_westEastBottom0.3 ssm_westEastBottom0.3" vType="carCustom" speedFactor="0.97" vaporized=""/>
    <tripinfo id="westEastTop.17" depart="68.00" departLane="westJunction_1" departPos="5.10" departSpeed="20.39" departDelay="3.42" arrival="121.00" arrivalLane="junctionEast_1" arrivalPos="492.80" arrivalSpeed="21.42" duration="53.00" routeLength="994.90" waitingTime="0.00" waitingCount="0" stopTime="0.00" timeLoss="7.65" rerouteNo="0" devices="tripinfo_westEastTop.17 ssm_westEastTop.17" vType="carCustom" speedFactor="1.11" vaporized=""/>
    <tripinfo id="southEast.5" depart="68.00" departLane="southJunction_0" departPos="5.10" departSpeed="10.97" departDelay="0.99" arrival="123.00" arrivalLane="junctionEast_0" arrivalPos="492.80" arrivalSpeed="20.98" duration="55.00" routeLength="989.53" waitingTime="0.00" waitingCount="0" stopTime="0.00" timeLoss="9.34" rerouteNo="0" devices="tripinfo_southEast.5 ssm_southEast.5" vType="carCustom" speedFactor="1.00" vaporized=""/>
    <tripinfo id="southNorth.5" depart="69.00" departLane="southJunction_1" departPos="5.10" departSpeed="21.24" departDelay="0.23" arrival="123.00" arrivalLane="junctionNorth_0" arrivalPos="492.80" arrivalSpeed="22.01" duration="54.00" routeLength="995.01" waitingTime="0.00" waitingCount="0" stopTime="0.00" timeLoss="8.92" rerouteNo="0" devices="tripinfo_southNorth.5 ssm_southNorth.5" vType="carCustom" speedFactor="0.97" vaporized=""/>
    <tripinfo id="southNorth.6" depart="71.00" departLane="southJunction_1" departPos="5.10" departSpeed="22.09" departDelay="2.15" arrival="125.00" arrivalLane="junctionNorth_0" arrivalPos="492.80" arrivalSpeed="21.74" duration="54.00" routeLength="995.01" waitingTime="0.00" waitingCount="0" stopTime="0.00" timeLoss="9.22" rerouteNo="0" devices="tripinfo_southNorth.6 ssm_southNorth.6" vType="carCustom" speedFactor="1.05" vaporized=""/>
    <tripinfo id="southEast.6" depart="70.00" departLane="southJunction_0" departPos="5.10" departSpeed="14.04" departDelay="0.09" arrival="126.00" arrivalLane="junctionEast_0" arrivalPos="492.80" arrivalSpeed="21.09" duration="56.00" routeLength="989.53" waitingTime="0.00" waitingCount="0" stopTime="0.00" timeLoss="10.63" rerouteNo="0" devices="tripinfo_southEast.6 ssm_southEast.6" vType="carCustom" speedFactor="0.90" vaporized=""/>
    <tripinfo id="westEastTop.18" depart="70.00" departLane="westJunction_1" departPos="5.10" departSpeed="20.09" departDelay="0.21" arrival="129.00" arrivalLane="junctionEast_1" arrivalPos="492.80" arrivalSpeed="21.08" duration="59.00" routeLength="994.90" waitingTime="1.00" waitingCount="1" stopTime="0.00" timeLoss="13.70" rerouteNo="0" devices="tripinfo_westEastTop.18 ssm_westEastTop.18" vType="carCustom" speedFactor="0.92" vaporized=""/>
    <tripinfo id="westEastBottom0.4" depart="74.00" departLane="westJunction_0" departPos="5.10" departSpeed="21.37" departDelay="0.80" arrival="129.00" arrivalLane="junctionEast_0" arrivalPos="492.80" arrivalSpeed="21.44" duration="55.00" routeLength="994.90" waitingTime="0.00" waitingCount="0" stopTime="0.00" timeLoss="9.49" rerouteNo="0" devices="tripinfo_westEastBottom0.4 ssm_westEastBottom0.4" vType="carCustom" speedFactor="1.04" vaporized=""/>
    <tripinfo id="westEastTop.19" depart="72.00" departLane="westJunction_1" departPos="5.10" departSpeed="19.55" departDelay="1.19" arrival="131.00" arrivalLane="junctionEast_0" arrivalPos="492.80" arrivalSpeed="21.09" duration="59.00" routeLength="994.90" waitingTime="0.00" waitingCount="0" stopTime="0.00" timeLoss="14.01" rerouteNo="0" devices="tripinfo_westEastTop.19 ssm_westEastTop.19" vType="carCustom" speedFactor="0.97" vaporized=""/>
    <tripinfo id="southEast.7" depart="72.00" departLane="southJunction_0" departPos="5.10" departSpeed="15.11" departDelay="0.72" arrival="134.00" arrivalLane="junctionEast_0" arrivalPos="492.80" arrivalSpeed="20.93" duration="62.00" routeLength="989.53" waitingTime="1.00" waitingCount="1" stopTime="0.00" timeLoss="16.55" rerouteNo="0" devices="tripinfo_southEast.7 ssm_southEast.7" vType="carCustom" speedFactor="1.05" vaporized=""/>
    <tripinfo id="westEastBottom0.5" depart="76.00" departLane="westJunction_0" departPos="5.10" departSpeed="20.86" departDelay="1.53" arrival="134.00" arrivalLane="junctionEast_1" arrivalPos="492.80" arrivalSpeed="21.97" duration="58.00" routeLength="994.90" waitingTime="0.00" waitingCount="0" stopTime="0.00" timeLoss="12.37" rerouteNo="0" devices="tripinfo_westEastBottom0.5 ssm_westEastBottom0.5" vType="carCustom" speedFactor="0.90" vaporized=""/>
    <tripinfo id="westEastTop.20" depart="82.00" departLane="westJunction_1" departPos="5.10" departSpeed="20.47" departDelay="0.98" arrival="136.00" arrivalLane="junctionEast_1" arrivalPos="492.80" arrivalSpeed="21.80" duration="54.00" routeLength="994.90" waitingTime="0.00" waitingCount="0" stopTime="0.00" timeLoss="8.72" rerouteNo="0" devices="tripinfo_westEastTop.20 ssm_westEastTop.20" vType="carCustom" speedFactor="1.14" vaporized=""/>
    <tripinfo id="westEastBottom0.6" depart="85.00" departLane="westJunction_0" departPos="5.10" departSpeed="19.45" departDelay="0.28" arrival="137.00" arrivalLane="junctionEast_0" arrivalPos="492.80" arrivalSpeed="21.45" duration="52.00" routeLength="994.90" waitingTime="0.00" waitingCount="0" stopTime="0.00" timeLoss="6.40" rerouteNo="0" devices="tripinfo_westEastBottom0.6 ssm_westEastBottom0.6" vType="carCustom" speedFactor="1.06" vaporized=""/>
    <tripinfo id="southNorth.7" depart="79.00" departLane="southJunction_1" departPos="5.10" departSpeed="20.78" departDelay="0.45" arrival="139.00" arrivalLane="junctionNorth_0" arrivalPos="492.80" arrivalSpeed="21.00" duration="60.00" routeLength="995.01" waitingTime="4.00" waitingCount="1" stopTime="0.00" timeLoss="15.00" rerouteNo="0" devices="tripinfo_southNorth.7 ssm_southNorth.7" vType="carCustom" speedFactor="1.12" vaporized=""/>
    <tripinfo id="southEast.8" depart="87.00" departLane="southJunction_0" departPos="5.10" departSpeed="20.74" departDelay="0.48" arrival="139.00" arrivalLane="junctionEast_0" arrivalPos="492.80" arrivalSpeed="21.47" duration="52.00" routeLength="989.53" waitingTime="0.00" waitingCount="0" stopTime="0.00" timeLoss="6.43" rerouteNo="0" devices="tripinfo_southEast.8 ssm_southEast.8" vType="carCustom" speedFactor="1.09" vaporized=""/>
    <tripinfo id="southNorth.8" depart="81.00" departLane="southJunction_1" departPos="5.10" departSpeed="22.01" departDelay="0.08" arrival="142.00" arrivalLane="junctionNorth_0" arrivalPos="492.80" arrivalSpeed="21.34" duration="61.00" routeLength="995.01" waitingTime="1.00" waitingCount="1" stopTime="0.00" timeLoss="15.30" rerouteNo="0" devices="tripinfo_southNorth.8 ssm_southNorth.8" vType="carCustom" speedFactor="0.92" vaporized=""/>
    <tripinfo id="westEastTop.21" depart="84.00" departLane="westJunction_1" departPos="5.10" departSpeed="20.99" departDelay="2.46" arrival="144.00" arrivalLane="junctionEast_1" arrivalPos="492.80" arrivalSpeed="21.36" duration="60.00" routeLength="994.90" waitingTime="1.00" waitingCount="1" stopTime="0.00" timeLoss="14.73" rerouteNo="0" devices="tripinfo_westEastTop.21 ssm_westEastTop.21" vType="carCustom" speedFactor="1.01" vaporized=""/>
    <tripinfo id="westEastBottom0.7" depart="93.00" departLane="westJunction_0" departPos="5.10" departSpeed="20.33" departDelay="0.14" arrival="145.00" arrivalLane="junctionEast_0" arrivalPos="492.80" arrivalSpeed="22.13" duration="52.00" routeLength="994.90" waitingTime="0.00" waitingCount="0" stopTime="0.00" timeLoss="6.27" rerouteNo="0" devices="tripinfo_westEastBottom0.7 ssm_westEastBottom0.7" vType="carCustom" speedFactor="1.03" vaporized=""/>
    <tripinfo id="westEastTop.22" depart="86.00" departLane="westJunction_1" departPos="5.10" departSpeed="20.77" departDelay="3.80" arrival="146.00" arrivalLane="junctionEast_1" arrivalPos="492.80" arrivalSpeed="21.24" duration="60.00" routeLength="994.90" waitingTime="0.00" waitingCount="0" stopTime="0.00" timeLoss="15.12" rerouteNo="0" devices="tripinfo_westEastTop.22 ssm_westEastTop.22" vType="carCustom" speedFactor="0.92" vaporized=""/>
    <tripinfo id="westEastTop.23" depart="88.00" departLane="westJunction_1" departPos="5.10" departSpeed="20.21" departDelay="5.56" arrival="149.00" arrivalLane="junctionEast_1" arrivalPos="492.80" arrivalSpeed="21.26" duration="61.00" routeLength="994.90" waitingTime="0.00" waitingCount="0" stopTime="0.00" timeLoss="15.53" rerouteNo="0" devices="tripinfo_westEastTop.23 ssm_westEastTop.23" vType="carCustom" speedFactor="1.04" vaporized=""/>
    <tripinfo id="southEast.9" depart="89.00" departLane="southJunction_0" departPos="5.10" departSpeed="20.96" departDelay="1.16" arrival="149.00" arrivalLane="junctionEast_0" arrivalPos="492.80" arrivalSpeed="20.93" duration="60.00" routeLength="989.53" waitingTime="3.00" waitingCount="1" stopTime="0.00" timeLoss="14.55" rerouteNo="0" devices="tripinfo_southEast.9 ssm_southEast.9" vType="carCustom" speedFactor="0.99" vaporized=""/>
    <tripinfo id="westEastTop.24" depart="90.00" departLane="westJunction_1" departPos="5.10" departSpeed="17.67" departDelay="3.68" arrival="151.00" arrivalLane="junctionEast_1" arrivalPos="492.80" arrivalSpeed="21.80" duration="61.00" routeLength="994.90" waitingTime="0.00" waitingCount="0" stopTime="0.00" timeLoss="15.76" rerouteNo="0" devices="tripinfo_westEastTop.24 ssm_westEastTop.24" vType="carCustom" speedFactor="1.05" vaporized=""/>
    <tripinfo id="southEast.10" depart="97.00" departLane="southJunction_0" departPos="5.10" departSpeed="21.53" departDelay="0.50" arrival="152.00" arrivalLane="junctionEast_0" arrivalPos="492.80" arrivalSpeed="21.11" duration="55.00" routeLength="989.53" waitingTime="0.00" waitingCount="0" stopTime="0.00" timeLoss="9.18" rerouteNo="0" devices="tripinfo_southEast.10 ssm_southEast.10" vType="carCustom" speedFactor="1.17" vaporized=""/>
    <tripinfo id="southNorth.9" depart="84.00" departLane="southJunction_1" departPos="5.10" departSpeed="21.24" departDelay="0.51" arrival="154.00" arrivalLane="junctionNorth_0" arrivalPos="492.80" arrivalSpeed="21.91" duration="70.00" routeLength="995.01" waitingTime="7.00" waitingCount="1" stopTime="0.00" timeLoss="24.61" rerouteNo="0" devices="tripinfo_southNorth.9 ssm_southNorth.9" vType="carCustom" speedFactor="0.95" vaporized=""/>
    <tripinfo id="southEast.11" depart="99.00" departLane="southJunction_0" departPos="5.10" departSpeed="21.43" departDelay="1.76" arrival="154.00" arrivalLane="junctionEast_0" arrivalPos="492.80" arrivalSpeed="21.23" duration="55.00" routeLength="989.53" waitingTime="0.00" waitingCount="0" stopTime="0.00" timeLoss="9.56" rerouteNo="0" devices="tripinfo_southEast.11 ssm_southEast.11" vType="carCustom" speedFactor="1.24" vaporized=""/>
    <tripinfo id="southNorth.10" depart="95.00" departLane="southJunction_1" departPos="5.10" departSpeed="21.04" departDelay="0.65" arrival="156.00" arrivalLane="junctionNorth_0" arrivalPos="492.80" arrivalSpeed="21.98" duration="61.00" routeLength="995.01" waitingTime="5.00" waitingCount="1" stopTime="0.00" timeLoss="15.99" rerouteNo="0" devices="tripinfo_southNorth.10 ssm_southNorth.10" vType="carCustom" speedFactor="1.12" vaporized=""/>
    <tripinfo id="southEast.12" depart="106.00" departLane="southJunction_0" departPos="5.10" departSpeed="21.38" departDelay="0.72" arrival="159.00" arrivalLane="junctionEast_0" arrivalPos="492.80" arrivalSpeed="21.27" duration="53.00" routeLength="989.53" waitingTime="0.00" waitingCount="0" stopTime="0.00" timeLoss="7.37" rerouteNo="0" devices="tripinfo_southEast.12 ssm_southEast.12" vType="carCustom" speedFactor="0.92" vaporized=""/>
    <tripinfo id="westEastTop.25" depart="92.00" departLane="westJunction_1" departPos="5.10" departSpeed="18.30" departDelay="5.06" arrival="160.00" arrivalLane="junctionEast_1" arrivalPos="492.80" arrivalSpeed="22.21" duration="68.00" routeLength="994.90" waitingTime="2.00" waitingCount="1" stopTime="0.00" timeLoss="22.23" rerouteNo="0" devices="tripinfo_westEastTop.25 ssm_westEastTop.25" vType="carCustom" speedFactor="1.07" vaporized=""/>
    <tripinfo id="westEastBottom0.8" depart="98.00" departLane="westJunction_0" departPos="5.10" departSpeed="18.11" departDelay="0.45" arrival="162.00" arrivalLane="junctionEast_0" arrivalPos="492.80" arrivalSpeed="20.94" duration="64.00" routeLength="994.90" waitingTime="2.00" waitingCount="1" stopTime="0.00" timeLoss="18.80" rerouteNo="0" devices="tripinfo_westEastBottom0.8 ssm_westEastBottom0.8" vType="carCustom" speedFactor="1.02" vaporized=""/>
    <tripinfo id="southNorth.11" depart="97.00" departLane="southJunction_1" departPos="5.10" departSpeed="21.86" departDelay="2.05" arrival="165.00" arrivalLane="junctionNorth_0" arrivalPos="492.80" arrivalSpeed="21.12" duration="68.00" routeLength="995.01" waitingTime="3.00" waitingCount="2" stopTime="0.00" timeLoss="22.55" rerouteNo="0" devices="tripinfo_southNorth.11 ssm_southNorth.11" vType="carCustom" speedFactor="1.04" vaporized=""/>
    <tripinfo id="southNorth.12" depart="99.00" departLane="southJunction_1" departPos="5.10" departSpeed="20.75" departDelay="3.31" arrival="167.00" arrivalLane="junctionNorth_0" arrivalPos="492.80" arrivalSpeed="21.39" duration="68.00" routeLength="995.01" waitingTime="1.00" waitingCount="1" stopTime="0.00" timeLoss="22.84" rerouteNo="0" devices="tripinfo_southNorth.12 ssm_southNorth.12" vType="carCustom" speedFactor="1.08" vaporized=""/>
    <tripinfo id="westEastBottom0.10" depart="116.00" departLane="westJunction_0" departPos="5.10" departSpeed="21.34" departDelay="0.46" arrival="169.00" arrivalLane="junctionEast_0" arrivalPos="492.80" arrivalSpeed="21.62" duration="53.00" routeLength="994.90" waitingTime="0.00" waitingCount="0" stopTime="0.00" timeLoss="8.01" rerouteNo="0" devices="tripinfo_westEastBottom0.10 ssm_westEastBottom0.10" vType="carCustom" speedFactor="0.91" vaporized=""/>
    <tripinfo id="westEastBottom0.9" depart="109.00" departLane="westJunction_0" departPos="5.10" departSpeed="21.85" departDelay="0.86" arrival="172.00" arrivalLane="junctionEast_1" arrivalPos="492.80" arrivalSpeed="21.95" duration="63.00" routeLength="994.90" waitingTime="4.00" waitingCount="1" stopTime="0.00" timeLoss="17.49" rerouteNo="0" devices="tripinfo_westEastBottom0.9 ssm_westEastBottom0.9" vType="carCustom" speedFactor="0.87" vaporized=""/>