<?xml version="1.0" encoding="UTF-8"?>

<!-- generated on 2025-04-29 04:44:07 by Eclipse SUMO sumo Version 1.20.0
<configuration xmlns:xsi="http://www.w3.org/2001/XMLSchema-instance" xsi:noNamespaceSchemaLocation="http://sumo.dlr.de/xsd/sumoConfiguration.xsd">

    <input>
        <net-file value="nets/2lane_unprotected_right/2lane_unprotected_right.net.xml"/>
        <route-files value="nets/2lane_unprotected_right/2lane_unprotected_right.rou.xml"/>
    </input>

    <output>
        <tripinfo-output value="traces/transs50f1_s50_f0.5_random/0023_tripinfo.xml"/>
        <collision-output value="traces/transs50f1_s50_f0.5_random/0023_collisions.xml"/>
        <statistic-output value="traces/transs50f1_s50_f0.5_random/0023_statistics.xml"/>
    </output>

    <processing>
        <collision.action value="teleport"/>
        <collision.check-junctions value="true"/>
        <time-to-teleport value="-1"/>
        <waiting-time-memory value="1000"/>
        <max-depart-delay value="-1"/>
        <default.speeddev value="0.1"/>
    </processing>

    <report>
        <no-warnings value="true"/>
    </report>

    <ssm_device>
        <device.ssm.probability value="1.0"/>
        <device.ssm.measures value="BR"/>
        <device.ssm.file value="/Users/finn/Code/CausalKnowledgeTransfer-4-SafeRL/traces/transs50f1_s50_f0.5_random/0023_ssm.xml"/>
    </ssm_device>

    <traci_server>
        <remote-port value="62675"/>
    </traci_server>

    <random_number>
        <random value="true"/>
    </random_number>

</configuration>
-->

<tripinfos xmlns:xsi="http://www.w3.org/2001/XMLSchema-instance" xsi:noNamespaceSchemaLocation="http://sumo.dlr.de/xsd/tripinfo_file.xsd">
    <tripinfo id="westEastTop.0" depart="3.00" departLane="westJunction_1" departPos="5.10" departSpeed="13.89" departDelay="0.90" arrival="78.00" arrivalLane="junctionEast_0" arrivalPos="492.80" arrivalSpeed="13.64" duration="75.00" routeLength="994.90" waitingTime="0.00" waitingCount="0" stopTime="0.00" timeLoss="3.27" rerouteNo="0" devices="tripinfo_westEastTop.0 ssm_westEastTop.0" vType="carCustom" speedFactor="1.26" vaporized=""/>
    <tripinfo id="westEastTop.1" depart="10.00" departLane="westJunction_1" departPos="5.10" departSpeed="13.59" departDelay="0.58" arrival="86.00" arrivalLane="junctionEast_0" arrivalPos="492.80" arrivalSpeed="12.61" duration="76.00" routeLength="994.90" waitingTime="0.00" waitingCount="0" stopTime="0.00" timeLoss="3.86" rerouteNo="0" devices="tripinfo_westEastTop.1 ssm_westEastTop.1" vType="carCustom" speedFactor="1.05" vaporized=""/>
    <tripinfo id="southEast.0" depart="2.00" departLane="southJunction_0" departPos="5.10" departSpeed="13.89" departDelay="0.48" arrival="90.00" arrivalLane="junctionEast_0" arrivalPos="492.80" arrivalSpeed="13.69" duration="88.00" routeLength="989.53" waitingTime="4.00" waitingCount="1" stopTime="0.00" timeLoss="15.91" rerouteNo="0" devices="tripinfo_southEast.0 ssm_southEast.0" vType="carCustom" speedFactor="1.06" vaporized=""/>
    <tripinfo id="westEastBottom0.0" depart="17.00" departLane="westJunction_0" departPos="5.10" departSpeed="13.89" departDelay="0.79" arrival="95.00" arrivalLane="junctionEast_0" arrivalPos="492.80" arrivalSpeed="13.19" duration="78.00" routeLength="994.90" waitingTime="0.00" waitingCount="0" stopTime="0.00" timeLoss="5.67" rerouteNo="0" devices="tripinfo_westEastBottom0.0 ssm_westEastBottom0.0" vType="carCustom" speedFactor="1.08" vaporized=""/>
    <tripinfo id="westEastBottom0.1" depart="19.00" departLane="westJunction_0" departPos="5.10" departSpeed="13.70" departDelay="0.07" arrival="98.00" arrivalLane="junctionEast_0" arrivalPos="492.80" arrivalSpeed="12.61" duration="79.00" routeLength="994.90" waitingTime="0.00" waitingCount="0" stopTime="0.00" timeLoss="6.67" rerouteNo="0" devices="tripinfo_westEastBottom0.1 ssm_westEastBottom0.1" vType="carCustom" speedFactor="0.92" vaporized=""/>
    <tripinfo id="southEast.1" depart="10.00" departLane="southJunction_0" departPos="5.10" departSpeed="13.53" departDelay="0.96" arrival="100.00" arrivalLane="junctionEast_1" arrivalPos="492.80" arrivalSpeed="12.99" duration="90.00" routeLength="989.53" waitingTime="4.00" waitingCount="1" stopTime="0.00" timeLoss="17.83" rerouteNo="0" devices="tripinfo_southEast.1 ssm_southEast.1" vType="carCustom" speedFactor="0.91" vaporized=""/>
    <tripinfo id="southNorth.0" depart="20.00" departLane="southJunction_1" departPos="5.10" departSpeed="13.89" departDelay="0.67" arrival="103.00" arrivalLane="junctionNorth_0" arrivalPos="492.80" arrivalSpeed="13.59" duration="83.00" routeLength="995.01" waitingTime="2.00" waitingCount="1" stopTime="0.00" timeLoss="10.68" rerouteNo="0" devices="tripinfo_southNorth.0 ssm_southNorth.0" vType="carCustom" speedFactor="1.17" vaporized=""/>
    <tripinfo id="southEast.2" depart="22.00" departLane="southJunction_0" departPos="5.10" departSpeed="13.87" departDelay="0.17" arrival="104.00" arrivalLane="junctionEast_0" arrivalPos="492.80" arrivalSpeed="13.68" duration="82.00" routeLength="989.53" waitingTime="0.00" waitingCount="0" stopTime="0.00" timeLoss="9.09" rerouteNo="0" devices="tripinfo_southEast.2 ssm_southEast.2" vType="carCustom" speedFactor="0.93" vaporized=""/>
    <tripinfo id="westEastBottom0.2" depart="22.00" departLane="westJunction_0" departPos="5.10" departSpeed="9.80" departDelay="0.40" arrival="108.00" arrivalLane="junctionEast_0" arrivalPos="492.80" arrivalSpeed="12.75" duration="86.00" routeLength="994.90" waitingTime="1.00" waitingCount="1" stopTime="0.00" timeLoss="14.33" rerouteNo="0" devices="tripinfo_westEastBottom0.2 ssm_westEastBottom0.2" vType="carCustom" speedFactor="1.00" vaporized=""/>
    <tripinfo id="westEastTop.2" depart="33.00" departLane="westJunction_1" departPos="5.10" departSpeed="13.52" departDelay="0.06" arrival="109.00" arrivalLane="junctionEast_1" arrivalPos="492.80" arrivalSpeed="13.48" duration="76.00" routeLength="994.90" waitingTime="0.00" waitingCount="0" stopTime="0.00" timeLoss="3.63" rerouteNo="0" devices="tripinfo_westEastTop.2 ssm_westEastTop.2" vType="carCustom" speedFactor="1.06" vaporized=""/>
    <tripinfo id="southEast.3" depart="24.00" departLane="southJunction_0" departPos="5.10" departSpeed="12.60" departDelay="0.51" arrival="113.00" arrivalLane="junctionEast_0" arrivalPos="492.80" arrivalSpeed="13.70" duration="89.00" routeLength="989.53" waitingTime="4.00" waitingCount="1" stopTime="0.00" timeLoss="17.20" rerouteNo="0" devices="tripinfo_southEast.3 ssm_southEast.3" vType="carCustom" speedFactor="1.01" vaporized=""/>
    <tripinfo id="southEast.4" depart="26.00" departLane="southJunction_0" departPos="5.10" departSpeed="8.35" departDelay="1.49" arrival="118.00" arrivalLane="junctionEast_0" arrivalPos="492.80" arrivalSpeed="13.25" duration="92.00" routeLength="989.53" waitingTime="0.00" waitingCount="0" stopTime="0.00" timeLoss="19.52" rerouteNo="0" devices="tripinfo_southEast.4 ssm_southEast.4" vType="carCustom" speedFactor="0.85" vaporized=""/>
    <tripinfo id="southNorth.1" depart="38.00" departLane="southJunction_1" departPos="5.10" departSpeed="13.33" departDelay="0.09" arrival="118.00" arrivalLane="junctionNorth_0" arrivalPos="492.80" arrivalSpeed="13.83" duration="80.00" routeLength="995.01" waitingTime="0.00" waitingCount="0" stopTime="0.00" timeLoss="7.87" rerouteNo="0" devices="tripinfo_southNorth.1 ssm_southNorth.1" vType="carCustom" speedFactor="0.97" vaporized=""/>
    <tripinfo id="southEast.5" depart="35.00" departLane="southJunction_0" departPos="5.10" departSpeed="11.56" departDelay="0.28" arrival="123.00" arrivalLane="junctionEast_0" arrivalPos="492.80" arrivalSpeed="12.95" duration="88.00" routeLength="989.53" waitingTime="0.00" waitingCount="0" stopTime="0.00" timeLoss="15.93" rerouteNo="0" devices="tripinfo_southEast.5 ssm_southEast.5" vType="carCustom" speedFactor="1.03" vaporized=""/>
    <tripinfo id="westEastTop.3" depart="41.00" departLane="westJunction_1" departPos="5.10" departSpeed="13.62" departDelay="0.44" arrival="124.00" arrivalLane="junctionEast_1" arrivalPos="492.80" arrivalSpeed="12.63" duration="83.00" routeLength="994.90" waitingTime="2.00" waitingCount="1" stopTime="0.00" timeLoss="10.84" rerouteNo="0" devices="tripinfo_westEastTop.3 ssm_westEastTop.3" vType="carCustom" speedFactor="1.01" vaporized=""/>
    <tripinfo id="southEast.6" depart="38.00" departLane="southJunction_0" departPos="5.10" departSpeed="12.99" departDelay="0.49" arrival="128.00" arrivalLane="junctionEast_0" arrivalPos="492.80" arrivalSpeed="13.45" duration="90.00" routeLength="989.53" waitingTime="2.00" waitingCount="1" stopTime="0.00" timeLoss="17.80" rerouteNo="0" devices="tripinfo_southEast.6 ssm_southEast.6" vType="carCustom" speedFactor="1.00" vaporized=""/>
    <tripinfo id="southNorth.2" depart="47.00" departLane="southJunction_1" departPos="5.10" departSpeed="13.09" departDelay="0.19" arrival="129.00" arrivalLane="junctionNorth_0" arrivalPos="492.80" arrivalSpeed="13.27" duration="82.00" routeLength="995.01" waitingTime="1.00" waitingCount="1" stopTime="0.00" timeLoss="9.63" rerouteNo="0" devices="tripinfo_southNorth.2 ssm_southNorth.2" vType="carCustom" speedFactor="1.03" vaporized=""/>
    <tripinfo id="southEast.7" depart="42.00" departLane="southJunction_0" departPos="5.10" departSpeed="11.59" departDelay="0.51" arrival="133.00" arrivalLane="junctionEast_0" arrivalPos="492.80" arrivalSpeed="13.48" duration="91.00" routeLength="989.53" waitingTime="0.00" waitingCount="0" stopTime="0.00" timeLoss="18.60" rerouteNo="0" devices="tripinfo_southEast.7 ssm_southEast.7" vType="carCustom" speedFactor="1.03" vaporized=""/>
    <tripinfo id="westEastTop.4" depart="46.00" departLane="westJunction_1" departPos="5.10" departSpeed="12.91" departDelay="0.43" arrival="133.00" arrivalLane="junctionEast_1" arrivalPos="492.80" arrivalSpeed="13.54" duration="87.00" routeLength="994.90" waitingTime="4.00" waitingCount="1" stopTime="0.00" timeLoss="14.99" rerouteNo="0" devices="tripinfo_westEastTop.4 ssm_westEastTop.4" vType="carCustom" speedFactor="0.93" vaporized=""/>
    <tripinfo id="southEast.8" depart="45.00" departLane="southJunction_0" departPos="5.10" departSpeed="11.09" departDelay="0.58" arrival="137.00" arrivalLane="junctionEast_0" arrivalPos="492.80" arrivalSpeed="13.25" duration="92.00" routeLength="989.53" waitingTime="0.00" waitingCount="0" stopTime="0.00" timeLoss="19.67" rerouteNo="0" devices="tripinfo_southEast.8 ssm_southEast.8" vType="carCustom" speedFactor="0.95" vaporized=""/>
    <tripinfo id="westEastTop.5" depart="48.00" departLane="westJunction_1" departPos="5.10" departSpeed="12.99" departDelay="2.34" arrival="138.00" arrivalLane="junctionEast_1" arrivalPos="492.80" arrivalSpeed="12.78" duration="90.00" routeLength="994.90" waitingTime="0.00" waitingCount="0" stopTime="0.00" timeLoss="17.54" rerouteNo="0" devices="tripinfo_westEastTop.5 ssm_westEastTop.5" vType="carCustom" speedFactor="1.04" vaporized=""/>
    <tripinfo id="westEastTop.6" depart="50.00" departLane="westJunction_1" departPos="5.10" departSpeed="9.26" departDelay="1.04" arrival="142.00" arrivalLane="junctionEast_0" arrivalPos="492.80" arrivalSpeed="13.26" duration="92.00" routeLength="994.90" waitingTime="0.00" waitingCount="0" stopTime="0.00" timeLoss="19.84" rerouteNo="0" devices="tripinfo_westEastTop.6 ssm_westEastTop.6" vType="carCustom" speedFactor="0.99" vaporized=""/>
    <tripinfo id="southNorth.3" depart="49.00" departLane="southJunction_1" departPos="5.10" departSpeed="13.79" departDelay="0.47" arrival="144.00" arrivalLane="junctionNorth_0" arrivalPos="492.80" arrivalSpeed="12.80" duration="95.00" routeLength="995.01" waitingTime="9.00" waitingCount="1" stopTime="0.00" timeLoss="22.53" rerouteNo="0" devices="tripinfo_southNorth.3 ssm_southNorth.3" vType="carCustom" speedFactor="0.96" vaporized=""/>
    <tripinfo id="southEast.9" depart="55.00" departLane="southJunction_0" departPos="5.10" departSpeed="10.41" departDelay="0.60" arrival="147.00" arrivalLane="junctionEast_0" arrivalPos="492.80" arrivalSpeed="12.64" duration="92.00" routeLength="989.53" waitingTime="3.00" waitingCount="1" stopTime="0.00" timeLoss="19.01" rerouteNo="0" devices="tripinfo_southEast.9 ssm_southEast.9" vType="carCustom" speedFactor="0.94" vaporized=""/>
    <tripinfo id="westEastTop.7" depart="54.00" departLane="westJunction_1" departPos="5.10" departSpeed="8.11" departDelay="0.83" arrival="150.00" arrivalLane="junctionEast_0" arrivalPos="492.80" arrivalSpeed="12.82" duration="96.00" routeLength="994.90" waitingTime="3.00" waitingCount="1" stopTime="0.00" timeLoss="24.34" rerouteNo="0" devices="tripinfo_westEastTop.7 ssm_westEastTop.7" vType="carCustom" speedFactor="1.13" vaporized=""/>
    <tripinfo id="westEastBottom0.3" depart="67.00" departLane="westJunction_0" departPos="5.10" departSpeed="2.41" departDelay="0.29" arrival="151.00" arrivalLane="junctionEast_1" arrivalPos="492.80" arrivalSpeed="13.01" duration="84.00" routeLength="994.90" waitingTime="0.00" waitingCount="0" stopTime="0.00" timeLoss="12.31" rerouteNo="0" devices="tripinfo_westEastBottom0.3 ssm_westEastBottom0.3" vType="carCustom" speedFactor="1.10" vaporized=""/>
    <tripinfo id="southNorth.4" depart="63.00" departLane="southJunction_1" departPos="5.10" departSpeed="12.96" departDelay="0.40" arrival="154.00" arrivalLane="junctionNorth_0" arrivalPos="492.80" arrivalSpeed="12.83" duration="91.00" routeLength="995.01" waitingTime="5.00" waitingCount="1" stopTime="0.00" timeLoss="18.64" rerouteNo="0" devices="tripinfo_southNorth.4 ssm_southNorth.4" vType="carCustom" speedFactor="0.88" vaporized=""/>
    <tripinfo id="westEastBottom0.4" depart="71.00" departLane="westJunction_0" departPos="5.10" departSpeed="11.03" departDelay="0.95" arrival="155.00" arrivalLane="junctionEast_0" arrivalPos="492.80" arrivalSpeed="13.21" duration="84.00" routeLength="994.90" waitingTime="0.00" waitingCount="0" stopTime="0.00" timeLoss="12.13" rerouteNo="0" devices="tripinfo_westEastBottom0.4 ssm_westEastBottom0.4" vType="carCustom" speedFactor="1.07" vaporized=""/>
    <tripinfo id="westEastBottom0.8" depart="110.00" departLane="westJunction_0" departPos="5.10" departSpeed="12.95" departDelay="0.80" arrival="155.00" arrivalLane="junctionEast_0" arrivalPos="492.80" arrivalSpeed="3.80" duration="45.00" routeLength="994.90" waitingTime="0.00" waitingCount="0" stopTime="0.00" timeLoss="8.63" rerouteNo="0" devices="tripinfo_westEastBottom0.8 ssm_westEastBottom0.8" vType="carCustom" speedFactor="0.74" vaporized="teleport"/>
    <tripinfo id="southEast.10" depart="72.00" departLane="southJunction_0" departPos="5.10" departSpeed="13.88" departDelay="0.75" arrival="156.00" arrivalLane="junctionEast_1" arrivalPos="492.80" arrivalSpeed="12.81" duration="84.00" routeLength="989.53" waitingTime="1.00" waitingCount="1" stopTime="0.00" timeLoss="11.57" rerouteNo="0" devices="tripinfo_southEast.10 ssm_southEast.10" vType="carCustom" speedFactor="1.05" vaporized=""/>
    <tripinfo id="westEastTop.8" depart="57.00" departLane="westJunction_1" departPos="5.10" departSpeed="7.54" departDelay="1.98" arrival="160.00" arrivalLane="junctionEast_0" arrivalPos="492.80" arrivalSpeed="13.05" duration="103.00" routeLength="994.90" waitingTime="3.00" waitingCount="1" stopTime="0.00" timeLoss="30.85" rerouteNo="0" devices="tripinfo_westEastTop.8 ssm_westEastTop.8" vType="carCustom" speedFactor="1.02" vaporized=""/>
    <tripinfo id="westEastTop.9" depart="60.00" departLane="westJunction_1" departPos="5.10" departSpeed="7.75" departDelay="4.65" arrival="164.00" arrivalLane="junctionEast_0" arrivalPos="492.80" arrivalSpeed="13.66" duration="104.00" routeLength="994.90" waitingTime="2.00" waitingCount="1" stopTime="0.00" timeLoss="32.34" rerouteNo="0" devices="tripinfo_westEastTop.9 ssm_westEastTop.9" vType="carCustom" speedFactor="0.97" vaporized=""/>
    <tripinfo id="westEastTop.10" depart="77.00" departLane="westJunction_1" departPos="5.10" departSpeed="10.80" departDelay="0.72" arrival="165.00" arrivalLane="junctionEast_1" arrivalPos="492.80" arrivalSpeed="12.71" duration="88.00" routeLength="994.90" waitingTime="0.00" waitingCount="0" stopTime="0.00" timeLoss="15.84" rerouteNo="0" devices="tripinfo_westEastTop.10 ssm_westEastTop.10" vType="carCustom" speedFactor="0.84" vaporized=""/>
    <tripinfo id="southNorth.5" depart="65.00" departLane="southJunction_1" departPos="5.10" departSpeed="13.21" departDelay="0.16" arrival="169.00" arrivalLane="junctionNorth_0" arrivalPos="492.80" arrivalSpeed="12.68" duration="104.00" routeLength="995.01" waitingTime="11.00" waitingCount="2" stopTime="0.00" timeLoss="31.87" rerouteNo="0" devices="tripinfo_southNorth.5 ssm_southNorth.5" vType="carCustom" speedFactor="1.04" vaporized=""/>
    <tripinfo id="southEast.11" depart="74.00" departLane="southJunction_0" departPos="5.10" departSpeed="12.67" departDelay="0.52" arrival="169.00" arrivalLane="junctionEast_0" arrivalPos="492.80" arrivalSpeed="13.23" duration="95.00" routeLength="989.53" waitingTime="4.00" waitingCount="1" stopTime="0.00" timeLoss="22.73" rerouteNo="0" devices="tripinfo_southEast.11 ssm_southEast.11" vType="carCustom" speedFactor="0.90" vaporized=""/>
    <tripinfo id="southEast.13" depart="81.00" departLane="southJunction_0" departPos="5.10" departSpeed="8.43" departDelay="0.82" arrival="171.00" arrivalLane="junctionEast_1" arrivalPos="492.80" arrivalSpeed="13.33" duration="90.00" routeLength="989.53" waitingTime="0.00" waitingCount="0" stopTime="0.00" timeLoss="17.59" rerouteNo="0" devices="tripinfo_southEast.13 ssm_southEast.13" vType="carCustom" speedFactor="1.09" vaporized=""/>
    <tripinfo id="southEast.12" depart="76.00" departLane="southJunction_0" departPos="5.10" departSpeed="9.19" departDelay="2.41" arrival="174.00" arrivalLane="junctionEast_0" arrivalPos="492.80" arrivalSpeed="12.70" duration="98.00" routeLength="989.53" waitingTime="0.00" waitingCount="0" stopTime="0.00" timeLoss="25.52" rerouteNo="0" devices="tripinfo_southEast.12 ssm_southEast.12" vType="carCustom" speedFactor="1.14" vaporized=""/>
    <tripinfo id="southNorth.6" depart="89.00" departLane="southJunction_1" departPos="5.10" departSpeed="13.14" departDelay="0.39" arrival="174.00" arrivalLane="junctionNorth_0" arrivalPos="492.80" arrivalSpeed="12.60" duration="85.00" routeLength="995.01" waitingTime="0.00" waitingCount="0" stopTime="0.00" timeLoss="12.50" rerouteNo="0" devices="tripinfo_southNorth.6 ssm_southNorth.6" vType="carCustom" speedFactor="1.20" vaporized=""/>
    <tripinfo id="westEastTop.11" depart="79.00" departLane="westJunction_1" departPos="5.10" departSpeed="13.50" departDelay="2.42" arrival="175.00" arrivalLane="junctionEast_1" arrivalPos="492.80" arrivalSpeed="12.75" duration="96.00" routeLength="994.90" waitingTime="4.00" waitingCount="1" stopTime="0.00" timeLoss="24.26" rerouteNo="0" devices="tripinfo_westEastTop.11 ssm_westEastTop.11" vType="carCustom" speedFactor="1.05" vaporized=""/>
    <tripinfo id="southEast.19" depart="128.00" departLane="southJunction_0" departPos="5.10" departSpeed="13.02" departDelay="0.34" arrival="175.00" arrivalLane="junctionEast_0" arrivalPos="492.80" arrivalSpeed="2.25" duration="47.00" routeLength="989.53" waitingTime="0.00" waitingCount="0" stopTime="0.00" timeLoss="10.19" rerouteNo="0" devices="tripinfo_southEast.19 ssm_southEast.19" vType="carCustom" speedFactor="1.02" vaporized="teleport"/>
    <tripinfo id="westEastBottom0.5" depart="93.00" departLane="westJunction_0" departPos="5.10" departSpeed="12.87" departDelay="0.91" arrival="178.00" arrivalLane="junctionEast_0" arrivalPos="492.80" arrivalSpeed="13.47" duration="85.00" routeLength="994.90" waitingTime="0.00" waitingCount="0" stopTime="0.00" timeLoss="12.99" rerouteNo="0" devices="tripinfo_westEastBottom0.5 ssm_westEastBottom0.5" vType="carCustom" speedFactor="0.91" vaporized=""/>
    <tripinfo id="southNorth.7" depart="91.00" departLane="southJunction_1" departPos="5.10" departSpeed="12.73" departDelay="1.94" arrival="179.00" arrivalLane="junctionNorth_0" arrivalPos="492.80" arrivalSpeed="12.88" duration="88.00" routeLength="995.01" waitingTime="1.00" waitingCount="1" stopTime="0.00" timeLoss="16.09" rerouteNo="0" devices="tripinfo_southNorth.7 ssm_southNorth.7" vType="carCustom" speedFactor="1.02" vaporized=""/>
    <tripinfo id="westEastTop.12" depart="81.00" departLane="westJunction_1" departPos="5.10" departSpeed="9.09" departDelay="4.02" arrival="180.00" arrivalLane="junctionEast_1" arrivalPos="492.80" arrivalSpeed="13.55" duration="99.00" routeLength="994.90" waitingTime="1.00" waitingCount="1" stopTime="0.00" timeLoss="26.90" rerouteNo="0" devices="tripinfo_westEastTop.12 ssm_westEastTop.12" vType="carCustom" speedFactor="0.93" vaporized=""/>
    <tripinfo id="southEast.14" depart="89.00" departLane="southJunction_0" departPos="5.10" departSpeed="10.72" departDelay="0.01" arrival="183.00" arrivalLane="junctionEast_0" arrivalPos="492.80" arrivalSpeed="13.37" duration="94.00" routeLength="989.53" waitingTime="2.00" waitingCount="1" stopTime="0.00" timeLoss="21.64" rerouteNo="0" devices="tripinfo_southEast.14 ssm_southEast.14" vType="carCustom" speedFactor="1.13" vaporized=""/>
    <tripinfo id="westEastTop.13" depart="88.00" departLane="westJunction_1" departPos="5.10" departSpeed="10.20" departDelay="0.01" arrival="185.00" arrivalLane="junctionEast_1" arrivalPos="492.80" arrivalSpeed="12.96" duration="97.00" routeLength="994.90" waitingTime="2.00" waitingCount="1" stopTime="0.00" timeLoss="24.66" rerouteNo="0" devices="tripinfo_westEastTop.13 ssm_westEastTop.13" vType="carCustom" speedFactor="1.00" vaporized=""/>
    <tripinfo id="westEastBottom0.6" depart="103.00" departLane="westJunction_0" departPos="5.10" departSpeed="13.63" departDelay="0.71" arrival="187.00" arrivalLane="junctionEast_0" arrivalPos="492.80" arrivalSpeed="13.63" duration="84.00" routeLength="994.90" waitingTime="0.00" waitingCount="0" stopTime="0.00" timeLoss="11.88" rerouteNo="0" devices="tripinfo_westEastBottom0.6 ssm_westEastBottom0.6" vType="carCustom" speedFactor="0.96" vaporized=""/>
    <tripinfo id="westEastTop.14" depart="90.00" departLane="westJunction_1" departPos="5.10" departSpeed="11.29" departDelay="1.18" arrival="189.00" arrivalLane="junctionEast_1" arrivalPos="492.80" arrivalSpeed="12.95" duration="99.00" routeLength="994.90" waitingTime="0.00" waitingCount="0" stopTime="0.00" timeLoss="27.28" rerouteNo="0" devices="tripinfo_westEastTop.14 ssm_westEastTop.14" vType="carCustom" speedFactor="0.87" vaporized=""/>
    <tripinfo id="westEastBottom0.7" depart="108.00" departLane="westJunction_0" departPos="5.10" departSpeed="12.84" departDelay="0.91" arrival="191.00" arrivalLane="junctionEast_0" arrivalPos="492.80" arrivalSpeed="13.88" duration="83.00" routeLength="994.90" waitingTime="0.00" waitingCount="0" stopTime="0.00" timeLoss="11.23" rerouteNo="0" devices="tripinfo_westEastBottom0.7 ssm_westEastBottom0.7" vType="carCustom" speedFactor="1.04" vaporized=""/>
    <tripinfo id="westEastTop.15" depart="92.00" departLane="westJunction_1" departPos="5.10" departSpeed="7.47" departDelay="2.73" arrival="194.00" arrivalLane="junctionEast_0" arrivalPos="492.80" arrivalSpeed="12.86" duration="102.00" routeLength="994.90" waitingTime="0.00" waitingCount="0" stopTime="0.00" timeLoss="29.92" rerouteNo="0" devices="tripinfo_westEastTop.15 ssm_westEastTop.15" vType="carCustom" speedFactor="0.98" vaporized=""/>
    <tripinfo id="southEast.15" depart="94.00" departLane="southJunction_0" departPos="5.10" departSpeed="12.79" departDelay="0.23" arrival="196.00" arrivalLane="junctionEast_0" arrivalPos="492.80" arrivalSpeed="12.94" duration="102.00" routeLength="989.53" waitingTime="5.00" waitingCount="1" stopTime="0.00" timeLoss="29.71" rerouteNo="0" devices="tripinfo_southEast.15 ssm_southEast.15" vType="carCustom" speedFactor="1.01" vaporized=""/>
    <tripinfo id="westEastTop.16" depart="95.00" departLane="westJunction_1" departPos="5.10" departSpeed="6.53" departDelay="4.86" arrival="199.00" arrivalLane="junctionEast_1" arrivalPos="492.80" arrivalSpeed="13.77" duration="104.00" routeLength="994.90" waitingTime="0.00" waitingCount="0" stopTime="0.00" timeLoss="31.48" rerouteNo="0" devices="tripinfo_westEastTop.16 ssm_westEastTop.16" vType="carCustom" speedFactor="0.94" vaporized=""/>
    <tripinfo id="southEast.16" depart="96.00" departLane="southJunction_0" departPos="5.10" departSpeed="13.14" departDelay="0.22" arrival="200.00" arrivalLane="junctionEast_0" arrivalPos="492.80" arrivalSpeed="13.55" duration="104.00" routeLength="989.53" waitingTime="1.00" waitingCount="1" stopTime="0.00" timeLoss="31.53" rerouteNo="0" devices="tripinfo_southEast.16 ssm_southEast.16" vType="carCustom" speedFactor="0.74" vaporized=""/>
    <tripinfo id="southNorth.8" depart="113.00" departLane="southJunction_1" departPos="5.10" departSpeed="13.47" departDelay="0.46" arrival="200.00" arrivalLane="junctionNorth_0" arrivalPos="492.80" arrivalSpeed="13.88" duration="87.00" routeLength="995.01" waitingTime="6.00" waitingCount="1" stopTime="0.00" timeLoss="15.19" rerouteNo="0" devices="tripinfo_southNorth.8 ssm_southNorth.8" vType="carCustom" speedFactor="1.01" vaporized=""/>
    <tripinfo id="westEastTop.17" depart="99.00" departLane="westJunction_1" departPos="5.10" departSpeed="6.86" departDelay="0.08" arrival="203.00" arrivalLane="junctionEast_0" arrivalPos="492.80" arrivalSpeed="13.59" duration="104.00" routeLength="994.90" waitingTime="0.00" waitingCount="0" stopTime="0.00" timeLoss="31.99" rerouteNo="0" devices="tripinfo_westEastTop.17 ssm_westEastTop.17" vType="carCustom" speedFactor="0.87" vaporized=""/>
    <tripinfo id="westEastBottom0.9" depart="118.00" departLane="westJunction_0" departPos="5.10" departSpeed="10.94" departDelay="0.32" arrival="205.00" arrivalLane="junctionEast_0" arrivalPos="492.80" arrivalSpeed="13.27" duration="87.00" routeLength="994.90" waitingTime="0.00" waitingCount="0" stopTime="0.00" timeLoss="14.91" rerouteNo="0" devices="tripinfo_westEastBottom0.9 ssm_westEastBottom0.9" vType="carCustom" speedFactor="1.08" vaporized=""/>
    <tripinfo id="westEastTop.18" depart="107.00" departLane="westJunction_1" departPos="5.10" departSpeed="8.67" departDelay="0.44" arrival="207.00" arrivalLane="junctionEast_1" arrivalPos="492.80" arrivalSpeed="13.10" duration="100.00" routeLength="994.90" waitingTime="2.00" waitingCount="1" stopTime="0.00" timeLoss="28.21" rerouteNo="0" devices="tripinfo_westEastTop.18 ssm_westEastTop.18" vType="carCustom" speedFactor="1.05" vaporized=""/>
    <tripinfo id="southEast.17" depart="109.00" departLane="southJunction_0" departPos="5.10" departSpeed="11.93" departDelay="0.66" arrival="209.00" arrivalLane="junctionEast_0" arrivalPos="492.80" arrivalSpeed="13.88" duration="100.00" routeLength="989.53" waitingTime="2.00" waitingCount="1" stopTime="0.00" timeLoss="27.53" rerouteNo="0" devices="tripinfo_southEast.17 ssm_southEast.17" vType="carCustom" speedFactor="0.98" vaporized=""/>
    <tripinfo id="westEastTop.19" depart="109.00" departLane="westJunction_1" departPos="5.10" departSpeed="10.80" departDelay="1.54" arrival="212.00" arrivalLane="junctionEast_0" arrivalPos="492.80" arrivalSpeed="13.31" duration="103.00" routeLength="994.90" waitingTime="0.00" waitingCount="0" stopTime="0.00" timeLoss="30.83" rerouteNo="0" devices="tripinfo_westEastTop.19 ssm_westEastTop.19" vType="carCustom" speedFactor="1.01" vaporized=""/>
    <tripinfo id="southEast.18" depart="124.00" departLane="southJunction_0" departPos="5.10" departSpeed="13.53" departDelay="0.10" arrival="215.00" arrivalLane="junctionEast_0" arrivalPos="492.80" arrivalSpeed="13.10" duration="91.00" routeLength="989.53" waitingTime="3.00" waitingCount="1" stopTime="0.00" timeLoss="18.63" rerouteNo="0" devices="tripinfo_southEast.18 ssm_southEast.18" vType="carCustom" speedFactor="1.15" vaporized=""/>
    <tripinfo id="westEastTop.20" depart="111.00" departLane="westJunction_1" departPos="5.10" departSpeed="7.10" departDelay="2.81" arrival="216.00" arrivalLane="junctionEast_0" arrivalPos="492.80" arrivalSpeed="13.64" duration="105.00" routeLength="994.90" waitingTime="0.00" waitingCount="0" stopTime="0.00" timeLoss="32.86" rerouteNo="0" devices="tripinfo_westEastTop.20 ssm_westEastTop.20" vType="carCustom" speedFactor="0.92" vaporized=""/>
    <tripinfo id="westEastBottom0.10" depart="135.00" departLane="westJunction_0" departPos="5.10" departSpeed="12.79" departDelay="0.76" arrival="219.00" arrivalLane="junctionEast_0" arrivalPos="492.80" arrivalSpeed="13.35" duration="84.00" routeLength="994.90" waitingTime="0.00" waitingCount="0" stopTime="0.00" timeLoss="11.70" rerouteNo="0" devices="tripinfo_westEastBottom0.10 ssm_westEastBottom0.10" vType="carCustom" speedFactor="0.89" vaporized=""/>
    <tripinfo id="westEastTop.21" depart="118.00" departLane="westJunction_1" departPos="5.10" departSpeed="7.64" departDelay="0.55" arrival="221.00" arrivalLane="junctionEast_1" arrivalPos="492.80" arrivalSpeed="13.88" duration="103.00" routeLength="994.90" waitingTime="0.00" waitingCount="0" stopTime="0.00" timeLoss="30.50" rerouteNo="0" devices="tripinfo_westEastTop.21 ssm_westEastTop.21" vType="carCustom" speedFactor="0.94" vaporized=""/>
    <tripinfo id="westEastBottom0.11" depart="141.00" departLane="westJunction_0" departPos="5.10" departSpeed="12.96" departDelay="0.92" arrival="223.00" arrivalLane="junctionEast_0" arrivalPos="492.80" arrivalSpeed="13.27" duration="82.00" routeLength="994.90" waitingTime="0.00" waitingCount="0" stopTime="0.00" timeLoss="9.71" rerouteNo="0" devices="tripinfo_westEastBottom0.11 ssm_westEastBottom0.11" vType="carCustom" speedFactor="0.80" vaporized=""/>