<?xml version="1.0" encoding="UTF-8"?>

<!-- generated on 2025-04-29 04:57:18 by Eclipse SUMO sumo Version 1.20.0
<configuration xmlns:xsi="http://www.w3.org/2001/XMLSchema-instance" xsi:noNamespaceSchemaLocation="http://sumo.dlr.de/xsd/sumoConfiguration.xsd">

    <input>
        <net-file value="nets/2lane_unprotected_right/2lane_unprotected_right.net.xml"/>
        <route-files value="nets/2lane_unprotected_right/2lane_unprotected_right.rou.xml"/>
    </input>

    <output>
        <tripinfo-output value="traces/transs50f1_s50_f0.5_random/0036_tripinfo.xml"/>
        <collision-output value="traces/transs50f1_s50_f0.5_random/0036_collisions.xml"/>
        <statistic-output value="traces/transs50f1_s50_f0.5_random/0036_statistics.xml"/>
    </output>

    <processing>
        <collision.action value="teleport"/>
        <collision.check-junctions value="true"/>
        <time-to-teleport value="-1"/>
        <waiting-time-memory value="1000"/>
        <max-depart-delay value="-1"/>
        <default.speeddev value="0.1"/>
    </processing>

    <report>
        <no-warnings value="true"/>
    </report>

    <ssm_device>
        <device.ssm.probability value="1.0"/>
        <device.ssm.measures value="BR"/>
        <device.ssm.file value="/Users/finn/Code/CausalKnowledgeTransfer-4-SafeRL/traces/transs50f1_s50_f0.5_random/0036_ssm.xml"/>
    </ssm_device>

    <traci_server>
        <remote-port value="62839"/>
    </traci_server>

    <random_number>
        <random value="true"/>
    </random_number>

</configuration>
-->

<tripinfos xmlns:xsi="http://www.w3.org/2001/XMLSchema-instance" xsi:noNamespaceSchemaLocation="http://sumo.dlr.de/xsd/tripinfo_file.xsd">
    <tripinfo id="westEastTop.0" depart="4.00" departLane="westJunction_1" departPos="5.10" departSpeed="27.78" departDelay="0.87" arrival="41.00" arrivalLane="junctionEast_1" arrivalPos="492.80" arrivalSpeed="26.69" duration="37.00" routeLength="994.90" waitingTime="0.00" waitingCount="0" stopTime="0.00" timeLoss="1.00" rerouteNo="0" devices="tripinfo_westEastTop.0 ssm_westEastTop.0" vType="carCustom" speedFactor="0.86" vaporized=""/>
    <tripinfo id="westEastBottom0.0" depart="4.00" departLane="westJunction_0" departPos="5.10" departSpeed="27.78" departDelay="0.69" arrival="41.00" arrivalLane="junctionEast_0" arrivalPos="492.80" arrivalSpeed="26.84" duration="37.00" routeLength="994.90" waitingTime="0.00" waitingCount="0" stopTime="0.00" timeLoss="1.01" rerouteNo="0" devices="tripinfo_westEastBottom0.0 ssm_westEastBottom0.0" vType="carCustom" speedFactor="1.03" vaporized=""/>
    <tripinfo id="southEast.0" depart="12.00" departLane="southJunction_0" departPos="5.10" departSpeed="27.78" departDelay="0.63" arrival="54.00" arrivalLane="junctionEast_0" arrivalPos="492.80" arrivalSpeed="27.43" duration="42.00" routeLength="989.53" waitingTime="0.00" waitingCount="0" stopTime="0.00" timeLoss="6.24" rerouteNo="0" devices="tripinfo_southEast.0 ssm_southEast.0" vType="carCustom" speedFactor="1.27" vaporized=""/>
    <tripinfo id="southNorth.0" depart="5.00" departLane="southJunction_1" departPos="5.10" departSpeed="27.78" departDelay="0.42" arrival="57.00" arrivalLane="junctionNorth_0" arrivalPos="492.80" arrivalSpeed="27.58" duration="52.00" routeLength="995.01" waitingTime="1.00" waitingCount="1" stopTime="0.00" timeLoss="15.33" rerouteNo="0" devices="tripinfo_southNorth.0 ssm_southNorth.0" vType="carCustom" speedFactor="0.97" vaporized=""/>
    <tripinfo id="westEastTop.1" depart="15.00" departLane="westJunction_1" departPos="5.10" departSpeed="27.37" departDelay="0.58" arrival="61.00" arrivalLane="junctionEast_1" arrivalPos="492.80" arrivalSpeed="27.48" duration="46.00" routeLength="994.90" waitingTime="2.00" waitingCount="1" stopTime="0.00" timeLoss="9.93" rerouteNo="0" devices="tripinfo_westEastTop.1 ssm_westEastTop.1" vType="carCustom" speedFactor="0.84" vaporized=""/>
    <tripinfo id="southNorth.1" depart="19.00" departLane="southJunction_1" departPos="5.10" departSpeed="21.93" departDelay="0.56" arrival="67.00" arrivalLane="junctionNorth_0" arrivalPos="492.80" arrivalSpeed="26.77" duration="48.00" routeLength="995.01" waitingTime="0.00" waitingCount="0" stopTime="0.00" timeLoss="11.31" rerouteNo="0" devices="tripinfo_southNorth.1 ssm_southNorth.1" vType="carCustom" speedFactor="1.15" vaporized=""/>
    <tripinfo id="southEast.1" depart="17.00" departLane="southJunction_0" departPos="5.10" departSpeed="26.51" departDelay="0.23" arrival="70.00" arrivalLane="junctionEast_0" arrivalPos="492.80" arrivalSpeed="27.64" duration="53.00" routeLength="989.53" waitingTime="0.00" waitingCount="0" stopTime="0.00" timeLoss="16.35" rerouteNo="0" devices="tripinfo_southEast.1 ssm_southEast.1" vType="carCustom" speedFactor="1.11" vaporized=""/>
    <tripinfo id="westEastTop.2" depart="18.00" departLane="westJunction_1" departPos="5.10" departSpeed="24.68" departDelay="0.22" arrival="72.00" arrivalLane="junctionEast_1" arrivalPos="492.80" arrivalSpeed="26.65" duration="54.00" routeLength="994.90" waitingTime="0.00" waitingCount="0" stopTime="0.00" timeLoss="17.73" rerouteNo="0" devices="tripinfo_westEastTop.2 ssm_westEastTop.2" vType="carCustom" speedFactor="1.05" vaporized=""/>
    <tripinfo id="westEastBottom0.1" depart="29.00" departLane="westJunction_0" departPos="5.10" departSpeed="27.78" departDelay="0.69" arrival="79.00" arrivalLane="junctionEast_0" arrivalPos="492.80" arrivalSpeed="27.06" duration="50.00" routeLength="994.90" waitingTime="0.00" waitingCount="0" stopTime="0.00" timeLoss="13.28" rerouteNo="0" devices="tripinfo_westEastBottom0.1 ssm_westEastBottom0.1" vType="carCustom" speedFactor="1.01" vaporized=""/>
    <tripinfo id="westEastTop.3" depart="21.00" departLane="westJunction_1" departPos="5.10" departSpeed="19.10" departDelay="0.78" arrival="80.00" arrivalLane="junctionEast_1" arrivalPos="492.80" arrivalSpeed="27.12" duration="59.00" routeLength="994.90" waitingTime="0.00" waitingCount="0" stopTime="0.00" timeLoss="22.98" rerouteNo="0" devices="tripinfo_westEastTop.3 ssm_westEastTop.3" vType="carCustom" speedFactor="1.17" vaporized=""/>
    <tripinfo id="southNorth.2" depart="21.00" departLane="southJunction_1" departPos="5.10" departSpeed="25.27" departDelay="1.95" arrival="83.00" arrivalLane="junctionNorth_0" arrivalPos="492.80" arrivalSpeed="26.64" duration="62.00" routeLength="995.01" waitingTime="2.00" waitingCount="1" stopTime="0.00" timeLoss="25.93" rerouteNo="0" devices="tripinfo_southNorth.2 ssm_southNorth.2" vType="carCustom" speedFactor="0.94" vaporized=""/>
    <tripinfo id="southEast.2" depart="29.00" departLane="southJunction_0" departPos="5.10" departSpeed="19.20" departDelay="0.70" arrival="86.00" arrivalLane="junctionEast_0" arrivalPos="492.80" arrivalSpeed="26.65" duration="57.00" routeLength="989.53" waitingTime="0.00" waitingCount="0" stopTime="0.00" timeLoss="19.83" rerouteNo="0" devices="tripinfo_southEast.2 ssm_southEast.2" vType="carCustom" speedFactor="0.83" vaporized=""/>
    <tripinfo id="westEastTop.4" depart="23.00" departLane="westJunction_1" departPos="5.10" departSpeed="15.32" departDelay="0.11" arrival="89.00" arrivalLane="junctionEast_1" arrivalPos="492.80" arrivalSpeed="26.49" duration="66.00" routeLength="994.90" waitingTime="0.00" waitingCount="0" stopTime="0.00" timeLoss="29.28" rerouteNo="0" devices="tripinfo_westEastTop.4 ssm_westEastTop.4" vType="carCustom" speedFactor="1.05" vaporized=""/>
    <tripinfo id="southNorth.3" depart="23.00" departLane="southJunction_1" departPos="5.10" departSpeed="21.49" departDelay="2.82" arrival="94.00" arrivalLane="junctionNorth_0" arrivalPos="492.80" arrivalSpeed="27.54" duration="71.00" routeLength="995.01" waitingTime="1.00" waitingCount="1" stopTime="0.00" timeLoss="34.33" rerouteNo="0" devices="tripinfo_southNorth.3 ssm_southNorth.3" vType="carCustom" speedFactor="1.02" vaporized=""/>
    <tripinfo id="westEastBottom0.2" depart="38.00" departLane="westJunction_0" departPos="5.10" departSpeed="20.11" departDelay="0.77" arrival="94.00" arrivalLane="junctionEast_0" arrivalPos="492.80" arrivalSpeed="26.79" duration="56.00" routeLength="994.90" waitingTime="0.00" waitingCount="0" stopTime="0.00" timeLoss="19.35" rerouteNo="0" devices="tripinfo_westEastBottom0.2 ssm_westEastBottom0.2" vType="carCustom" speedFactor="1.21" vaporized=""/>
    <tripinfo id="westEastTop.5" depart="25.00" departLane="westJunction_1" departPos="5.10" departSpeed="11.54" departDelay="1.24" arrival="98.00" arrivalLane="junctionEast_1" arrivalPos="492.80" arrivalSpeed="27.26" duration="73.00" routeLength="994.90" waitingTime="0.00" waitingCount="0" stopTime="0.00" timeLoss="36.58" rerouteNo="0" devices="tripinfo_westEastTop.5 ssm_westEastTop.5" vType="carCustom" speedFactor="1.01" vaporized=""/>
    <tripinfo id="southEast.3" depart="39.00" departLane="southJunction_0" departPos="5.10" departSpeed="16.33" departDelay="0.81" arrival="101.00" arrivalLane="junctionEast_0" arrivalPos="492.80" arrivalSpeed="26.49" duration="62.00" routeLength="989.53" waitingTime="0.00" waitingCount="0" stopTime="0.00" timeLoss="25.01" rerouteNo="0" devices="tripinfo_southEast.3 ssm_southEast.3" vType="carCustom" speedFactor="1.16" vaporized=""/>
    <tripinfo id="southNorth.4" depart="25.00" departLane="southJunction_1" departPos="5.10" departSpeed="17.71" departDelay="3.16" arrival="104.00" arrivalLane="junctionNorth_0" arrivalPos="492.80" arrivalSpeed="27.77" duration="79.00" routeLength="995.01" waitingTime="2.00" waitingCount="1" stopTime="0.00" timeLoss="42.69" rerouteNo="0" devices="tripinfo_southNorth.4 ssm_southNorth.4" vType="carCustom" speedFactor="0.99" vaporized=""/>
    <tripinfo id="westEastBottom0.3" depart="41.00" departLane="westJunction_0" departPos="5.10" departSpeed="18.61" departDelay="0.49" arrival="105.00" arrivalLane="junctionEast_1" arrivalPos="492.80" arrivalSpeed="27.39" duration="64.00" routeLength="994.90" waitingTime="0.00" waitingCount="0" stopTime="0.00" timeLoss="28.19" rerouteNo="0" devices="tripinfo_westEastBottom0.3 ssm_westEastBottom0.3" vType="carCustom" speedFactor="1.06" vaporized=""/>
    <tripinfo id="southEast.4" depart="44.00" departLane="southJunction_0" departPos="5.10" departSpeed="18.34" departDelay="0.06" arrival="112.00" arrivalLane="junctionEast_1" arrivalPos="492.80" arrivalSpeed="27.24" duration="68.00" routeLength="989.53" waitingTime="0.00" waitingCount="0" stopTime="0.00" timeLoss="31.58" rerouteNo="0" devices="tripinfo_southEast.4 ssm_southEast.4" vType="carCustom" speedFactor="1.01" vaporized=""/>
    <tripinfo id="westEastBottom0.4" depart="51.00" departLane="westJunction_0" departPos="5.10" departSpeed="13.63" departDelay="0.12" arrival="113.00" arrivalLane="junctionEast_0" arrivalPos="492.80" arrivalSpeed="27.32" duration="62.00" routeLength="994.90" waitingTime="0.00" waitingCount="0" stopTime="0.00" timeLoss="25.78" rerouteNo="0" devices="tripinfo_westEastBottom0.4 ssm_westEastBottom0.4" vType="carCustom" speedFactor="0.98" vaporized=""/>
    <tripinfo id="westEastTop.6" depart="27.00" departLane="westJunction_1" departPos="5.10" departSpeed="7.76" departDelay="2.71" arrival="119.00" arrivalLane="junctionEast_1" arrivalPos="492.80" arrivalSpeed="27.26" duration="92.00" routeLength="994.90" waitingTime="0.00" waitingCount="0" stopTime="0.00" timeLoss="55.79" rerouteNo="0" devices="tripinfo_westEastTop.6 ssm_westEastTop.6" vType="carCustom" speedFactor="1.00" vaporized=""/>
    <tripinfo id="southNorth.5" depart="27.00" departLane="southJunction_1" departPos="5.10" departSpeed="13.93" departDelay="1.60" arrival="120.00" arrivalLane="junctionNorth_0" arrivalPos="492.80" arrivalSpeed="26.65" duration="93.00" routeLength="995.01" waitingTime="10.00" waitingCount="1" stopTime="0.00" timeLoss="56.70" rerouteNo="0" devices="tripinfo_southNorth.5 ssm_southNorth.5" vType="carCustom" speedFactor="1.20" vaporized=""/>
    <tripinfo id="southEast.5" depart="47.00" departLane="southJunction_0" departPos="5.10" departSpeed="13.96" departDelay="0.36" arrival="120.00" arrivalLane="junctionEast_0" arrivalPos="492.80" arrivalSpeed="27.24" duration="73.00" routeLength="989.53" waitingTime="0.00" waitingCount="0" stopTime="0.00" timeLoss="35.98" rerouteNo="0" devices="tripinfo_southEast.5 ssm_southEast.5" vType="carCustom" speedFactor="0.99" vaporized=""/>
    <tripinfo id="westEastTop.7" depart="37.00" departLane="westJunction_1" departPos="5.10" departSpeed="6.23" departDelay="0.17" arrival="126.00" arrivalLane="junctionEast_1" arrivalPos="492.80" arrivalSpeed="27.17" duration="89.00" routeLength="994.90" waitingTime="0.00" waitingCount="0" stopTime="0.00" timeLoss="52.33" rerouteNo="0" devices="tripinfo_westEastTop.7 ssm_westEastTop.7" vType="carCustom" speedFactor="1.06" vaporized=""/>
    <tripinfo id="westEastBottom0.5" depart="53.00" departLane="westJunction_0" departPos="5.10" departSpeed="15.30" departDelay="0.77" arrival="127.00" arrivalLane="junctionEast_0" arrivalPos="492.80" arrivalSpeed="27.31" duration="74.00" routeLength="994.90" waitingTime="0.00" waitingCount="0" stopTime="0.00" timeLoss="37.66" rerouteNo="0" devices="tripinfo_westEastBottom0.5 ssm_westEastBottom0.5" vType="carCustom" speedFactor="0.99" vaporized=""/>
    <tripinfo id="southNorth.6" depart="30.00" departLane="southJunction_1" departPos="5.10" departSpeed="8.32" departDelay="0.77" arrival="128.00" arrivalLane="junctionNorth_0" arrivalPos="492.80" arrivalSpeed="26.88" duration="98.00" routeLength="995.01" waitingTime="4.00" waitingCount="1" stopTime="0.00" timeLoss="61.42" rerouteNo="0" devices="tripinfo_southNorth.6 ssm_southNorth.6" vType="carCustom" speedFactor="1.04" vaporized=""/>
    <tripinfo id="westEastTop.8" depart="45.00" departLane="westJunction_1" departPos="5.10" departSpeed="8.47" departDelay="0.46" arrival="133.00" arrivalLane="junctionEast_1" arrivalPos="492.80" arrivalSpeed="27.18" duration="88.00" routeLength="994.90" waitingTime="1.00" waitingCount="1" stopTime="0.00" timeLoss="51.33" rerouteNo="0" devices="tripinfo_westEastTop.8 ssm_westEastTop.8" vType="carCustom" speedFactor="1.13" vaporized=""/>
    <tripinfo id="westEastBottom0.6" depart="59.00" departLane="westJunction_0" departPos="5.10" departSpeed="9.79" departDelay="0.66" arrival="134.00" arrivalLane="junctionEast_0" arrivalPos="492.80" arrivalSpeed="27.07" duration="75.00" routeLength="994.90" waitingTime="0.00" waitingCount="0" stopTime="0.00" timeLoss="38.46" rerouteNo="0" devices="tripinfo_westEastBottom0.6 ssm_westEastBottom0.6" vType="carCustom" speedFactor="0.94" vaporized=""/>
    <tripinfo id="southNorth.7" depart="33.00" departLane="southJunction_1" departPos="5.10" departSpeed="6.12" departDelay="0.51" arrival="139.00" arrivalLane="junctionNorth_0" arrivalPos="492.80" arrivalSpeed="26.94" duration="106.00" routeLength="995.01" waitingTime="10.00" waitingCount="1" stopTime="0.00" timeLoss="69.54" rerouteNo="0" devices="tripinfo_southNorth.7 ssm_southNorth.7" vType="carCustom" speedFactor="1.05" vaporized=""/>
    <tripinfo id="westEastTop.9" depart="54.00" departLane="westJunction_1" departPos="5.10" departSpeed="9.83" departDelay="0.16" arrival="139.00" arrivalLane="junctionEast_1" arrivalPos="492.80" arrivalSpeed="26.64" duration="85.00" routeLength="994.90" waitingTime="0.00" waitingCount="0" stopTime="0.00" timeLoss="49.09" rerouteNo="0" devices="tripinfo_westEastTop.9 ssm_westEastTop.9" vType="carCustom" speedFactor="0.97" vaporized=""/>
    <tripinfo id="southEast.6" depart="80.00" departLane="southJunction_0" departPos="5.10" departSpeed="11.71" departDelay="0.80" arrival="141.00" arrivalLane="junctionEast_0" arrivalPos="492.80" arrivalSpeed="26.96" duration="61.00" routeLength="989.53" waitingTime="0.00" waitingCount="0" stopTime="0.00" timeLoss="23.44" rerouteNo="0" devices="tripinfo_southEast.6 ssm_southEast.6" vType="carCustom" speedFactor="0.98" vaporized=""/>
    <tripinfo id="westEastTop.10" depart="56.00" departLane="westJunction_1" departPos="5.10" departSpeed="11.08" departDelay="1.37" arrival="146.00" arrivalLane="junctionEast_1" arrivalPos="492.80" arrivalSpeed="26.77" duration="90.00" routeLength="994.90" waitingTime="0.00" waitingCount="0" stopTime="0.00" timeLoss="53.50" rerouteNo="0" devices="tripinfo_westEastTop.10 ssm_westEastTop.10" vType="carCustom" speedFactor="0.94" vaporized=""/>
    <tripinfo id="southEast.7" depart="86.00" departLane="southJunction_0" departPos="5.10" departSpeed="21.01" departDelay="0.74" arrival="148.00" arrivalLane="junctionEast_0" arrivalPos="492.80" arrivalSpeed="27.39" duration="62.00" routeLength="989.53" waitingTime="0.00" waitingCount="0" stopTime="0.00" timeLoss="25.36" rerouteNo="0" devices="tripinfo_southEast.7 ssm_southEast.7" vType="carCustom" speedFactor="1.14" vaporized=""/>
    <tripinfo id="southNorth.8" depart="39.00" departLane="southJunction_1" departPos="5.10" departSpeed="5.04" departDelay="0.21" arrival="149.00" arrivalLane="junctionNorth_0" arrivalPos="492.80" arrivalSpeed="27.71" duration="110.00" routeLength="995.01" waitingTime="11.00" waitingCount="2" stopTime="0.00" timeLoss="73.83" rerouteNo="0" devices="tripinfo_southNorth.8 ssm_southNorth.8" vType="carCustom" speedFactor="1.07" vaporized=""/>
    <tripinfo id="westEastTop.11" depart="76.00" departLane="westJunction_1" departPos="5.10" departSpeed="10.20" departDelay="0.20" arrival="153.00" arrivalLane="junctionEast_1" arrivalPos="492.80" arrivalSpeed="26.76" duration="77.00" routeLength="994.90" waitingTime="0.00" waitingCount="0" stopTime="0.00" timeLoss="40.29" rerouteNo="0" devices="tripinfo_westEastTop.11 ssm_westEastTop.11" vType="carCustom" speedFactor="0.86" vaporized=""/>
    <tripinfo id="southNorth.9" depart="77.00" departLane="southJunction_1" departPos="5.10" departSpeed="9.94" departDelay="0.86" arrival="157.00" arrivalLane="junctionNorth_0" arrivalPos="492.80" arrivalSpeed="26.98" duration="80.00" routeLength="995.01" waitingTime="2.00" waitingCount="1" stopTime="0.00" timeLoss="43.50" rerouteNo="0" devices="tripinfo_southNorth.9 ssm_southNorth.9" vType="carCustom" speedFactor="0.93" vaporized=""/>
    <tripinfo id="westEastBottom0.8" depart="97.00" departLane="westJunction_0" departPos="5.10" departSpeed="13.26" departDelay="0.91" arrival="159.00" arrivalLane="junctionEast_1" arrivalPos="492.80" arrivalSpeed="26.87" duration="62.00" routeLength="994.90" waitingTime="1.00" waitingCount="1" stopTime="0.00" timeLoss="25.91" rerouteNo="0" devices="tripinfo_westEastBottom0.8 ssm_westEastBottom0.8" vType="carCustom" speedFactor="0.92" vaporized=""/>
    <tripinfo id="southEast.8" depart="91.00" departLane="southJunction_0" departPos="5.10" departSpeed="14.56" departDelay="0.05" arrival="162.00" arrivalLane="junctionEast_0" arrivalPos="492.80" arrivalSpeed="26.89" duration="71.00" routeLength="989.53" waitingTime="2.00" waitingCount="1" stopTime="0.00" timeLoss="34.63" rerouteNo="0" devices="tripinfo_southEast.8 ssm_southEast.8" vType="carCustom" speedFactor="1.01" vaporized=""/>
    <tripinfo id="westEastBottom0.7" depart="83.00" departLane="westJunction_0" departPos="5.10" departSpeed="12.13" departDelay="0.02" arrival="165.00" arrivalLane="junctionEast_1" arrivalPos="492.80" arrivalSpeed="27.21" duration="82.00" routeLength="994.90" waitingTime="1.00" waitingCount="1" stopTime="0.00" timeLoss="46.01" rerouteNo="0" devices="tripinfo_westEastBottom0.7 ssm_westEastBottom0.7" vType="carCustom" speedFactor="0.86" vaporized=""/>
    <tripinfo id="westEastBottom0.9" depart="109.00" departLane="westJunction_0" departPos="5.10" departSpeed="15.75" departDelay="0.43" arrival="170.00" arrivalLane="junctionEast_0" arrivalPos="492.80" arrivalSpeed="27.57" duration="61.00" routeLength="994.90" waitingTime="0.00" waitingCount="0" stopTime="0.00" timeLoss="24.48" rerouteNo="0" devices="tripinfo_westEastBottom0.9 ssm_westEastBottom0.9" vType="carCustom" speedFactor="0.98" vaporized=""/>
    <tripinfo id="westEastTop.12" depart="80.00" departLane="westJunction_1" departPos="5.10" departSpeed="16.59" departDelay="0.73" arrival="172.00" arrivalLane="junctionEast_1" arrivalPos="492.80" arrivalSpeed="27.41" duration="92.00" routeLength="994.90" waitingTime="0.00" waitingCount="0" stopTime="0.00" timeLoss="55.21" rerouteNo="0" devices="tripinfo_westEastTop.12 ssm_westEastTop.12" vType="carCustom" speedFactor="1.04" vaporized=""/>
    <tripinfo id="westEastTop.13" depart="84.00" departLane="westJunction_1" departPos="5.10" departSpeed="10.97" departDelay="0.78" arrival="178.00" arrivalLane="junctionEast_1" arrivalPos="492.80" arrivalSpeed="27.47" duration="94.00" routeLength="994.90" waitingTime="0.00" waitingCount="0" stopTime="0.00" timeLoss="57.28" rerouteNo="0" devices="tripinfo_westEastTop.13 ssm_westEastTop.13" vType="carCustom" speedFactor="0.96" vaporized=""/>
    <tripinfo id="southEast.9" depart="106.00" departLane="southJunction_0" departPos="5.10" departSpeed="14.64" departDelay="0.43" arrival="178.00" arrivalLane="junctionEast_0" arrivalPos="492.80" arrivalSpeed="27.09" duration="72.00" routeLength="989.53" waitingTime="1.00" waitingCount="1" stopTime="0.00" timeLoss="35.50" rerouteNo="0" devices="tripinfo_southEast.9 ssm_southEast.9" vType="carCustom" speedFactor="0.95" vaporized=""/>
    <tripinfo id="westEastTop.14" depart="88.00" departLane="westJunction_1" departPos="5.10" departSpeed="9.34" departDelay="0.87" arrival="184.00" arrivalLane="junctionEast_1" arrivalPos="492.80" arrivalSpeed="26.80" duration="96.00" routeLength="994.90" waitingTime="0.00" waitingCount="0" stopTime="0.00" timeLoss="59.64" rerouteNo="0" devices="tripinfo_westEastTop.14 ssm_westEastTop.14" vType="carCustom" speedFactor="0.96" vaporized=""/>
    <tripinfo id="southEast.10" depart="108.00" departLane="southJunction_0" departPos="5.10" departSpeed="19.02" departDelay="0.65" arrival="185.00" arrivalLane="junctionEast_0" arrivalPos="492.80" arrivalSpeed="26.67" duration="77.00" routeLength="989.53" waitingTime="0.00" waitingCount="0" stopTime="0.00" timeLoss="39.73" rerouteNo="0" devices="tripinfo_southEast.10 ssm_southEast.10" vType="carCustom" speedFactor="1.00" vaporized=""/>
    <tripinfo id="westEastTop.15" depart="97.00" departLane="westJunction_1" departPos="5.10" departSpeed="8.59" departDelay="0.48" arrival="190.00" arrivalLane="junctionEast_1" arrivalPos="492.80" arrivalSpeed="26.62" duration="93.00" routeLength="994.90" waitingTime="0.00" waitingCount="0" stopTime="0.00" timeLoss="56.76" rerouteNo="0" devices="tripinfo_westEastTop.15 ssm_westEastTop.15" vType="carCustom" speedFactor="1.01" vaporized=""/>
    <tripinfo id="southNorth.10" depart="87.00" departLane="southJunction_1" departPos="5.10" departSpeed="17.96" departDelay="0.60" arrival="191.00" arrivalLane="junctionNorth_0" arrivalPos="492.80" arrivalSpeed="26.60" duration="104.00" routeLength="995.01" waitingTime="33.00" waitingCount="1" stopTime="0.00" timeLoss="67.65" rerouteNo="0" devices="tripinfo_southNorth.10 ssm_southNorth.10" vType="carCustom" speedFactor="0.99" vaporized=""/>
    <tripinfo id="westEastTop.16" depart="100.00" departLane="westJunction_1" departPos="5.10" departSpeed="9.88" departDelay="0.56" arrival="196.00" arrivalLane="junctionEast_1" arrivalPos="492.80" arrivalSpeed="27.64" duration="96.00" routeLength="994.90" waitingTime="0.00" waitingCount="0" stopTime="0.00" timeLoss="59.85" rerouteNo="0" devices="tripinfo_westEastTop.16 ssm_westEastTop.16" vType="carCustom" speedFactor="1.03" vaporized=""/>
    <tripinfo id="southNorth.11" depart="89.00" departLane="southJunction_1" departPos="5.10" departSpeed="18.38" departDelay="2.23" arrival="201.00" arrivalLane="junctionNorth_0" arrivalPos="492.80" arrivalSpeed="27.50" duration="112.00" routeLength="995.01" waitingTime="33.00" waitingCount="2" stopTime="0.00" timeLoss="75.50" rerouteNo="0" devices="tripinfo_southNorth.11 ssm_southNorth.11" vType="carCustom" speedFactor="1.02" vaporized=""/>
    <tripinfo id="westEastTop.17" depart="102.00" departLane="westJunction_1" departPos="5.10" departSpeed="7.21" departDelay="0.40" arrival="202.00" arrivalLane="junctionEast_1" arrivalPos="492.80" arrivalSpeed="26.70" duration="100.00" routeLength="994.90" waitingTime="0.00" waitingCount="0" stopTime="0.00" timeLoss="63.85" rerouteNo="0" devices="tripinfo_westEastTop.17 ssm_westEastTop.17" vType="carCustom" speedFactor="1.18" vaporized=""/>
    <tripinfo id="westEastTop.18" depart="105.00" departLane="westJunction_1" departPos="5.10" departSpeed="4.60" departDelay="2.20" arrival="208.00" arrivalLane="junctionEast_1" arrivalPos="492.80" arrivalSpeed="27.21" duration="103.00" routeLength="994.90" waitingTime="0.00" waitingCount="0" stopTime="0.00" timeLoss="66.82" rerouteNo="0" devices="tripinfo_westEastTop.18 ssm_westEastTop.18" vType="carCustom" speedFactor="1.06" vaporized=""/>
    <tripinfo id="southNorth.12" depart="91.00" departLane="southJunction_1" departPos="5.10" departSpeed="14.60" departDelay="1.70" arrival="209.00" arrivalLane="junctionNorth_0" arrivalPos="492.80" arrivalSpeed="26.54" duration="118.00" routeLength="995.01" waitingTime="24.00" waitingCount="2" stopTime="0.00" timeLoss="81.23" rerouteNo="0" devices="tripinfo_southNorth.12 ssm_southNorth.12" vType="carCustom" speedFactor="0.95" vaporized=""/>
    <tripinfo id="southEast.11" depart="144.00" departLane="southJunction_0" departPos="5.10" departSpeed="8.46" departDelay="0.34" arrival="209.00" arrivalLane="junctionEast_0" arrivalPos="492.80" arrivalSpeed="27.11" duration="65.00" routeLength="989.53" waitingTime="0.00" waitingCount="0" stopTime="0.00" timeLoss="27.61" rerouteNo="0" devices="tripinfo_southEast.11 ssm_southEast.11" vType="carCustom" speedFactor="0.78" vaporized=""/>
    <tripinfo id="westEastTop.19" depart="117.00" departLane="westJunction_1" departPos="5.10" departSpeed="6.38" departDelay="0.52" arrival="215.00" arrivalLane="junctionEast_1" arrivalPos="492.80" arrivalSpeed="27.18" duration="98.00" routeLength="994.90" waitingTime="2.00" waitingCount="1" stopTime="0.00" timeLoss="61.39" rerouteNo="0" devices="tripinfo_westEastTop.19 ssm_westEastTop.19" vType="carCustom" speedFactor="0.97" vaporized=""/>
    <tripinfo id="westEastBottom0.10" depart="152.00" departLane="westJunction_0" departPos="5.10" departSpeed="27.78" departDelay="0.52" arrival="216.00" arrivalLane="junctionEast_0" arrivalPos="492.80" arrivalSpeed="26.70" duration="64.00" routeLength="994.90" waitingTime="3.00" waitingCount="1" stopTime="0.00" timeLoss="27.21" rerouteNo="0" devices="tripinfo_westEastBottom0.10 ssm_westEastBottom0.10" vType="carCustom" speedFactor="1.29" vaporized=""/>
    <tripinfo id="southNorth.13" depart="124.00" departLane="southJunction_1" departPos="5.10" departSpeed="10.07" departDelay="0.56" arrival="217.00" arrivalLane="junctionNorth_0" arrivalPos="492.80" arrivalSpeed="26.92" duration="93.00" routeLength="995.01" waitingTime="17.00" waitingCount="3" stopTime="0.00" timeLoss="57.17" rerouteNo="0" devices="tripinfo_southNorth.13 ssm_southNorth.13" vType="carCustom" speedFactor="1.14" vaporized=""/>
    <tripinfo id="westEastTop.20" depart="119.00" departLane="westJunction_1" departPos="5.10" departSpeed="8.05" departDelay="2.17" arrival="221.00" arrivalLane="junctionEast_1" arrivalPos="492.80" arrivalSpeed="26.76" duration="102.00" routeLength="994.90" waitingTime="0.00" waitingCount="0" stopTime="0.00" timeLoss="66.03" rerouteNo="0" devices="tripinfo_westEastTop.20 ssm_westEastTop.20" vType="carCustom" speedFactor="1.18" vaporized=""/>
    <tripinfo id="westEastBottom0.11" depart="154.00" departLane="westJunction_0" departPos="5.10" departSpeed="25.89" departDelay="0.52" arrival="223.00" arrivalLane="junctionEast_0" arrivalPos="492.80" arrivalSpeed="26.66" duration="69.00" routeLength="994.90" waitingTime="0.00" waitingCount="0" stopTime="0.00" timeLoss="32.35" rerouteNo="0" devices="tripinfo_westEastBottom0.11 ssm_westEastBottom0.11" vType="carCustom" speedFactor="0.86" vaporized=""/>
    <tripinfo id="southNorth.14" depart="126.00" departLane="southJunction_1" departPos="5.10" departSpeed="14.35" departDelay="2.27" arrival="228.00" arrivalLane="junctionNorth_0" arrivalPos="492.80" arrivalSpeed="27.37" duration="102.00" routeLength="995.01" waitingTime="8.00" waitingCount="3" stopTime="0.00" timeLoss="65.22" rerouteNo="0" devices="tripinfo_southNorth.14 ssm_southNorth.14" vType="carCustom" speedFactor="1.13" vaporized=""/>
    <tripinfo id="westEastTop.21" depart="125.00" departLane="westJunction_1" departPos="5.10" departSpeed="5.56" departDelay="0.87" arrival="228.00" arrivalLane="junctionEast_1" arrivalPos="492.80" arrivalSpeed="27.71" duration="103.00" routeLength="994.90" waitingTime="3.00" waitingCount="1" stopTime="0.00" timeLoss="66.89" rerouteNo="0" devices="tripinfo_westEastTop.21 ssm_westEastTop.21" vType="carCustom" speedFactor="0.88" vaporized=""/>
    <tripinfo id="southEast.12" depart="160.00" departLane="southJunction_0" departPos="5.10" departSpeed="16.04" departDelay="0.24" arrival="229.00" arrivalLane="junctionEast_0" arrivalPos="492.80" arrivalSpeed="27.44" duration="69.00" routeLength="989.53" waitingTime="0.00" waitingCount="0" stopTime="0.00" timeLoss="31.97" rerouteNo="0" devices="tripinfo_southEast.12 ssm_southEast.12" vType="carCustom" speedFactor="0.91" vaporized=""/>
    <tripinfo id="westEastTop.22" depart="128.00" departLane="westJunction_1" departPos="5.10" departSpeed="6.38" departDelay="1.54" arrival="235.00" arrivalLane="junctionEast_1" arrivalPos="492.80" arrivalSpeed="27.67" duration="107.00" routeLength="994.90" waitingTime="0.00" waitingCount="0" stopTime="0.00" timeLoss="70.39" rerouteNo="0" devices="tripinfo_westEastTop.22 ssm_westEastTop.22" vType="carCustom" speedFactor="1.02" vaporized=""/>