<?xml version="1.0" encoding="UTF-8"?>

<!-- generated on 2025-04-29 04:59:10 by Eclipse SUMO sumo Version 1.20.0
<configuration xmlns:xsi="http://www.w3.org/2001/XMLSchema-instance" xsi:noNamespaceSchemaLocation="http://sumo.dlr.de/xsd/sumoConfiguration.xsd">

    <input>
        <net-file value="nets/2lane_unprotected_right/2lane_unprotected_right.net.xml"/>
        <route-files value="nets/2lane_unprotected_right/2lane_unprotected_right.rou.xml"/>
    </input>

    <output>
        <tripinfo-output value="traces/transs50f1_s50_f0.5_random/0037_tripinfo.xml"/>
        <collision-output value="traces/transs50f1_s50_f0.5_random/0037_collisions.xml"/>
        <statistic-output value="traces/transs50f1_s50_f0.5_random/0037_statistics.xml"/>
    </output>

    <processing>
        <collision.action value="teleport"/>
        <collision.check-junctions value="true"/>
        <time-to-teleport value="-1"/>
        <waiting-time-memory value="1000"/>
        <max-depart-delay value="-1"/>
        <default.speeddev value="0.1"/>
    </processing>

    <report>
        <no-warnings value="true"/>
    </report>

    <ssm_device>
        <device.ssm.probability value="1.0"/>
        <device.ssm.measures value="BR"/>
        <device.ssm.file value="/Users/finn/Code/CausalKnowledgeTransfer-4-SafeRL/traces/transs50f1_s50_f0.5_random/0037_ssm.xml"/>
    </ssm_device>

    <traci_server>
        <remote-port value="62851"/>
    </traci_server>

    <random_number>
        <random value="true"/>
    </random_number>

</configuration>
-->

<tripinfos xmlns:xsi="http://www.w3.org/2001/XMLSchema-instance" xsi:noNamespaceSchemaLocation="http://sumo.dlr.de/xsd/tripinfo_file.xsd">
    <tripinfo id="southNorth.0" depart="1.00" departLane="southJunction_1" departPos="5.10" departSpeed="27.78" departDelay="0.93" arrival="41.00" arrivalLane="junctionNorth_0" arrivalPos="492.80" arrivalSpeed="27.23" duration="40.00" routeLength="995.01" waitingTime="0.00" waitingCount="0" stopTime="0.00" timeLoss="3.30" rerouteNo="0" devices="tripinfo_southNorth.0 ssm_southNorth.0" vType="carCustom" speedFactor="1.10" vaporized=""/>
    <tripinfo id="westEastBottom0.0" depart="5.00" departLane="westJunction_0" departPos="5.10" departSpeed="27.78" departDelay="0.42" arrival="46.00" arrivalLane="junctionEast_0" arrivalPos="492.80" arrivalSpeed="27.13" duration="41.00" routeLength="994.90" waitingTime="0.00" waitingCount="0" stopTime="0.00" timeLoss="4.81" rerouteNo="0" devices="tripinfo_westEastBottom0.0 ssm_westEastBottom0.0" vType="carCustom" speedFactor="0.98" vaporized=""/>
    <tripinfo id="westEastTop.0" depart="3.00" departLane="westJunction_1" departPos="5.10" departSpeed="27.78" departDelay="0.20" arrival="50.00" arrivalLane="junctionEast_1" arrivalPos="492.80" arrivalSpeed="27.11" duration="47.00" routeLength="994.90" waitingTime="3.00" waitingCount="1" stopTime="0.00" timeLoss="10.48" rerouteNo="0" devices="tripinfo_westEastTop.0 ssm_westEastTop.0" vType="carCustom" speedFactor="0.96" vaporized=""/>
    <tripinfo id="westEastBottom0.1" depart="7.00" departLane="westJunction_0" departPos="5.10" departSpeed="26.49" departDelay="0.05" arrival="53.00" arrivalLane="junctionEast_0" arrivalPos="492.80" arrivalSpeed="26.88" duration="46.00" routeLength="994.90" waitingTime="0.00" waitingCount="0" stopTime="0.00" timeLoss="9.80" rerouteNo="0" devices="tripinfo_westEastBottom0.1 ssm_westEastBottom0.1" vType="carCustom" speedFactor="0.97" vaporized=""/>
    <tripinfo id="westEastTop.1" depart="7.00" departLane="westJunction_1" departPos="5.10" departSpeed="26.96" departDelay="0.20" arrival="56.00" arrivalLane="junctionEast_1" arrivalPos="492.80" arrivalSpeed="26.74" duration="49.00" routeLength="994.90" waitingTime="0.00" waitingCount="0" stopTime="0.00" timeLoss="12.69" rerouteNo="0" devices="tripinfo_westEastTop.1 ssm_westEastTop.1" vType="carCustom" speedFactor="0.95" vaporized=""/>
    <tripinfo id="southEast.0" depart="5.00" departLane="southJunction_0" departPos="5.10" departSpeed="27.78" departDelay="0.39" arrival="59.00" arrivalLane="junctionEast_0" arrivalPos="492.80" arrivalSpeed="27.74" duration="54.00" routeLength="989.53" waitingTime="7.00" waitingCount="1" stopTime="0.00" timeLoss="17.16" rerouteNo="0" devices="tripinfo_southEast.0 ssm_southEast.0" vType="carCustom" speedFactor="1.07" vaporized=""/>
    <tripinfo id="westEastTop.2" depart="9.00" departLane="westJunction_1" departPos="5.10" departSpeed="22.63" departDelay="0.88" arrival="62.00" arrivalLane="junctionEast_1" arrivalPos="492.80" arrivalSpeed="26.72" duration="53.00" routeLength="994.90" waitingTime="0.00" waitingCount="0" stopTime="0.00" timeLoss="16.41" rerouteNo="0" devices="tripinfo_westEastTop.2 ssm_westEastTop.2" vType="carCustom" speedFactor="1.15" vaporized=""/>
    <tripinfo id="westEastBottom0.2" depart="20.00" departLane="westJunction_0" departPos="5.10" departSpeed="21.73" departDelay="0.14" arrival="67.00" arrivalLane="junctionEast_1" arrivalPos="492.80" arrivalSpeed="27.45" duration="47.00" routeLength="994.90" waitingTime="0.00" waitingCount="0" stopTime="0.00" timeLoss="11.18" rerouteNo="0" devices="tripinfo_westEastBottom0.2 ssm_westEastBottom0.2" vType="carCustom" speedFactor="1.17" vaporized=""/>
    <tripinfo id="westEastTop.3" depart="21.00" departLane="westJunction_1" departPos="5.10" departSpeed="19.55" departDelay="0.14" arrival="73.00" arrivalLane="junctionEast_1" arrivalPos="492.80" arrivalSpeed="27.30" duration="52.00" routeLength="994.90" waitingTime="0.00" waitingCount="0" stopTime="0.00" timeLoss="15.81" rerouteNo="0" devices="tripinfo_westEastTop.3 ssm_westEastTop.3" vType="carCustom" speedFactor="1.14" vaporized=""/>
    <tripinfo id="westEastTop.4" depart="23.00" departLane="westJunction_1" departPos="5.10" departSpeed="23.80" departDelay="1.50" arrival="79.00" arrivalLane="junctionEast_1" arrivalPos="492.80" arrivalSpeed="27.46" duration="56.00" routeLength="994.90" waitingTime="0.00" waitingCount="0" stopTime="0.00" timeLoss="19.43" rerouteNo="0" devices="tripinfo_westEastTop.4 ssm_westEastTop.4" vType="carCustom" speedFactor="1.10" vaporized=""/>
    <tripinfo id="southEast.1" depart="18.00" departLane="southJunction_0" departPos="5.10" departSpeed="26.21" departDelay="0.65" arrival="80.00" arrivalLane="junctionEast_0" arrivalPos="492.80" arrivalSpeed="27.03" duration="62.00" routeLength="989.53" waitingTime="10.00" waitingCount="1" stopTime="0.00" timeLoss="24.97" rerouteNo="0" devices="tripinfo_southEast.1 ssm_southEast.1" vType="carCustom" speedFactor="0.91" vaporized=""/>
    <tripinfo id="westEastTop.5" depart="25.00" departLane="westJunction_1" departPos="5.10" departSpeed="17.92" departDelay="1.69" arrival="85.00" arrivalLane="junctionEast_1" arrivalPos="492.80" arrivalSpeed="26.53" duration="60.00" routeLength="994.90" waitingTime="0.00" waitingCount="0" stopTime="0.00" timeLoss="23.26" rerouteNo="0" devices="tripinfo_westEastTop.5 ssm_westEastTop.5" vType="carCustom" speedFactor="1.06" vaporized=""/>
    <tripinfo id="westEastBottom0.3" depart="34.00" departLane="westJunction_0" departPos="5.10" departSpeed="27.78" departDelay="0.29" arrival="86.00" arrivalLane="junctionEast_0" arrivalPos="492.80" arrivalSpeed="26.68" duration="52.00" routeLength="994.90" waitingTime="0.00" waitingCount="0" stopTime="0.00" timeLoss="15.25" rerouteNo="0" devices="tripinfo_westEastBottom0.3 ssm_westEastBottom0.3" vType="carCustom" speedFactor="1.00" vaporized=""/>
    <tripinfo id="southNorth.1" depart="19.00" departLane="southJunction_1" departPos="5.10" departSpeed="14.81" departDelay="0.98" arrival="89.00" arrivalLane="junctionNorth_0" arrivalPos="492.80" arrivalSpeed="27.38" duration="70.00" routeLength="995.01" waitingTime="20.00" waitingCount="1" stopTime="0.00" timeLoss="33.75" rerouteNo="0" devices="tripinfo_southNorth.1 ssm_southNorth.1" vType="carCustom" speedFactor="1.09" vaporized=""/>
    <tripinfo id="southEast.2" depart="34.00" departLane="southJunction_0" departPos="5.10" departSpeed="17.29" departDelay="0.37" arrival="91.00" arrivalLane="junctionEast_0" arrivalPos="492.80" arrivalSpeed="26.55" duration="57.00" routeLength="989.53" waitingTime="2.00" waitingCount="1" stopTime="0.00" timeLoss="20.49" rerouteNo="0" devices="tripinfo_southEast.2 ssm_southEast.2" vType="carCustom" speedFactor="0.89" vaporized=""/>
    <tripinfo id="westEastTop.6" depart="29.00" departLane="westJunction_1" departPos="5.10" departSpeed="9.35" departDelay="0.79" arrival="93.00" arrivalLane="junctionEast_1" arrivalPos="492.80" arrivalSpeed="26.73" duration="64.00" routeLength="994.90" waitingTime="0.00" waitingCount="0" stopTime="0.00" timeLoss="27.37" rerouteNo="0" devices="tripinfo_westEastTop.6 ssm_westEastTop.6" vType="carCustom" speedFactor="0.94" vaporized=""/>
    <tripinfo id="southNorth.2" depart="36.00" departLane="southJunction_1" departPos="5.10" departSpeed="21.27" departDelay="0.99" arrival="98.00" arrivalLane="junctionNorth_0" arrivalPos="492.80" arrivalSpeed="27.19" duration="62.00" routeLength="995.01" waitingTime="6.00" waitingCount="2" stopTime="0.00" timeLoss="25.77" rerouteNo="0" devices="tripinfo_southNorth.2 ssm_southNorth.2" vType="carCustom" speedFactor="0.94" vaporized=""/>
    <tripinfo id="southEast.3" depart="38.00" departLane="southJunction_0" departPos="5.10" departSpeed="25.36" departDelay="0.76" arrival="99.00" arrivalLane="junctionEast_0" arrivalPos="492.80" arrivalSpeed="27.58" duration="61.00" routeLength="989.53" waitingTime="3.00" waitingCount="1" stopTime="0.00" timeLoss="24.28" rerouteNo="0" devices="tripinfo_southEast.3 ssm_southEast.3" vType="carCustom" speedFactor="1.20" vaporized=""/>
    <tripinfo id="westEastBottom0.5" depart="68.00" departLane="westJunction_0" departPos="5.10" departSpeed="17.26" departDelay="0.10" arrival="99.00" arrivalLane="junctionEast_0" arrivalPos="492.80" arrivalSpeed="10.01" duration="31.00" routeLength="994.90" waitingTime="0.00" waitingCount="0" stopTime="0.00" timeLoss="12.76" rerouteNo="0" devices="tripinfo_westEastBottom0.5 ssm_westEastBottom0.5" vType="carCustom" speedFactor="1.05" vaporized="teleport"/>
    <tripinfo id="westEastTop.7" depart="33.00" departLane="westJunction_1" departPos="5.10" departSpeed="10.80" departDelay="0.48" arrival="103.00" arrivalLane="junctionEast_1" arrivalPos="492.80" arrivalSpeed="27.03" duration="70.00" routeLength="994.90" waitingTime="3.00" waitingCount="1" stopTime="0.00" timeLoss="33.69" rerouteNo="0" devices="tripinfo_westEastTop.7 ssm_westEastTop.7" vType="carCustom" speedFactor="0.92" vaporized=""/>
    <tripinfo id="southNorth.3" depart="38.00" departLane="southJunction_1" departPos="5.10" departSpeed="24.54" departDelay="0.10" arrival="104.00" arrivalLane="junctionNorth_0" arrivalPos="492.80" arrivalSpeed="26.53" duration="66.00" routeLength="995.01" waitingTime="1.00" waitingCount="1" stopTime="0.00" timeLoss="29.38" rerouteNo="0" devices="tripinfo_southNorth.3 ssm_southNorth.3" vType="carCustom" speedFactor="0.90" vaporized=""/>
    <tripinfo id="westEastBottom0.4" depart="47.00" departLane="westJunction_0" departPos="5.10" departSpeed="17.11" departDelay="0.22" arrival="105.00" arrivalLane="junctionEast_0" arrivalPos="492.80" arrivalSpeed="27.61" duration="58.00" routeLength="994.90" waitingTime="0.00" waitingCount="0" stopTime="0.00" timeLoss="21.40" rerouteNo="0" devices="tripinfo_westEastBottom0.4 ssm_westEastBottom0.4" vType="carCustom" speedFactor="0.95" vaporized=""/>
    <tripinfo id="westEastTop.8" depart="38.00" departLane="westJunction_1" departPos="5.10" departSpeed="9.97" departDelay="0.01" arrival="109.00" arrivalLane="junctionEast_1" arrivalPos="492.80" arrivalSpeed="26.54" duration="71.00" routeLength="994.90" waitingTime="0.00" waitingCount="0" stopTime="0.00" timeLoss="34.40" rerouteNo="0" devices="tripinfo_westEastTop.8 ssm_westEastTop.8" vType="carCustom" speedFactor="0.85" vaporized=""/>
    <tripinfo id="southEast.4" depart="45.00" departLane="southJunction_0" departPos="5.10" departSpeed="21.13" departDelay="0.79" arrival="111.00" arrivalLane="junctionEast_0" arrivalPos="492.80" arrivalSpeed="27.39" duration="66.00" routeLength="989.53" waitingTime="4.00" waitingCount="1" stopTime="0.00" timeLoss="28.81" rerouteNo="0" devices="tripinfo_southEast.4 ssm_southEast.4" vType="carCustom" speedFactor="1.11" vaporized=""/>
    <tripinfo id="southNorth.4" depart="41.00" departLane="southJunction_1" departPos="5.10" departSpeed="17.91" departDelay="0.56" arrival="113.00" arrivalLane="junctionNorth_0" arrivalPos="492.80" arrivalSpeed="27.57" duration="72.00" routeLength="995.01" waitingTime="7.00" waitingCount="1" stopTime="0.00" timeLoss="36.12" rerouteNo="0" devices="tripinfo_southNorth.4 ssm_southNorth.4" vType="carCustom" speedFactor="1.00" vaporized=""/>
    <tripinfo id="westEastTop.9" depart="43.00" departLane="westJunction_1" departPos="5.10" departSpeed="10.44" departDelay="0.48" arrival="114.00" arrivalLane="junctionEast_1" arrivalPos="492.80" arrivalSpeed="26.81" duration="71.00" routeLength="994.90" waitingTime="0.00" waitingCount="0" stopTime="0.00" timeLoss="34.76" rerouteNo="0" devices="tripinfo_westEastTop.9 ssm_westEastTop.9" vType="carCustom" speedFactor="0.99" vaporized=""/>
    <tripinfo id="southEast.5" depart="47.00" departLane="southJunction_0" departPos="5.10" departSpeed="20.81" departDelay="2.34" arrival="116.00" arrivalLane="junctionEast_0" arrivalPos="492.80" arrivalSpeed="26.49" duration="69.00" routeLength="989.53" waitingTime="0.00" waitingCount="0" stopTime="0.00" timeLoss="32.22" rerouteNo="0" devices="tripinfo_southEast.5 ssm_southEast.5" vType="carCustom" speedFactor="1.03" vaporized=""/>
    <tripinfo id="southNorth.5" depart="47.00" departLane="southJunction_1" departPos="5.10" departSpeed="16.29" departDelay="0.13" arrival="119.00" arrivalLane="junctionNorth_0" arrivalPos="492.80" arrivalSpeed="26.85" duration="72.00" routeLength="995.01" waitingTime="3.00" waitingCount="1" stopTime="0.00" timeLoss="35.88" rerouteNo="0" devices="tripinfo_southNorth.5 ssm_southNorth.5" vType="carCustom" speedFactor="0.90" vaporized=""/>
    <tripinfo id="westEastTop.10" depart="46.00" departLane="westJunction_1" departPos="5.10" departSpeed="10.94" departDelay="0.64" arrival="120.00" arrivalLane="junctionEast_1" arrivalPos="492.80" arrivalSpeed="27.02" duration="74.00" routeLength="994.90" waitingTime="1.00" waitingCount="1" stopTime="0.00" timeLoss="37.89" rerouteNo="0" devices="tripinfo_westEastTop.10 ssm_westEastTop.10" vType="carCustom" speedFactor="1.10" vaporized=""/>
    <tripinfo id="southEast.6" depart="51.00" departLane="southJunction_0" departPos="5.10" departSpeed="13.95" departDelay="0.51" arrival="121.00" arrivalLane="junctionEast_0" arrivalPos="492.80" arrivalSpeed="27.51" duration="70.00" routeLength="989.53" waitingTime="0.00" waitingCount="0" stopTime="0.00" timeLoss="33.22" rerouteNo="0" devices="tripinfo_southEast.6 ssm_southEast.6" vType="carCustom" speedFactor="0.91" vaporized=""/>
    <tripinfo id="westEastTop.11" depart="50.00" departLane="westJunction_1" departPos="5.10" departSpeed="9.96" departDelay="0.51" arrival="125.00" arrivalLane="junctionEast_1" arrivalPos="492.80" arrivalSpeed="27.53" duration="75.00" routeLength="994.90" waitingTime="0.00" waitingCount="0" stopTime="0.00" timeLoss="39.12" rerouteNo="0" devices="tripinfo_westEastTop.11 ssm_westEastTop.11" vType="carCustom" speedFactor="1.11" vaporized=""/>
    <tripinfo id="southNorth.6" depart="59.00" departLane="southJunction_1" departPos="5.10" departSpeed="16.66" departDelay="0.72" arrival="126.00" arrivalLane="junctionNorth_0" arrivalPos="492.80" arrivalSpeed="26.78" duration="67.00" routeLength="995.01" waitingTime="3.00" waitingCount="1" stopTime="0.00" timeLoss="30.56" rerouteNo="0" devices="tripinfo_southNorth.6 ssm_southNorth.6" vType="carCustom" speedFactor="0.99" vaporized=""/>
    <tripinfo id="southEast.7" depart="63.00" departLane="southJunction_0" departPos="5.10" departSpeed="14.44" departDelay="0.02" arrival="126.00" arrivalLane="junctionEast_0" arrivalPos="492.80" arrivalSpeed="26.80" duration="63.00" routeLength="989.53" waitingTime="0.00" waitingCount="0" stopTime="0.00" timeLoss="26.33" rerouteNo="0" devices="tripinfo_southEast.7 ssm_southEast.7" vType="carCustom" speedFactor="1.17" vaporized=""/>
    <tripinfo id="westEastTop.12" depart="55.00" departLane="westJunction_1" departPos="5.10" departSpeed="9.51" departDelay="0.01" arrival="131.00" arrivalLane="junctionEast_1" arrivalPos="492.80" arrivalSpeed="26.79" duration="76.00" routeLength="994.90" waitingTime="1.00" waitingCount="1" stopTime="0.00" timeLoss="40.17" rerouteNo="0" devices="tripinfo_westEastTop.12 ssm_westEastTop.12" vType="carCustom" speedFactor="0.95" vaporized=""/>
    <tripinfo id="southNorth.7" depart="61.00" departLane="southJunction_1" departPos="5.10" departSpeed="19.78" departDelay="2.67" arrival="131.00" arrivalLane="junctionNorth_0" arrivalPos="492.80" arrivalSpeed="27.24" duration="70.00" routeLength="995.01" waitingTime="0.00" waitingCount="0" stopTime="0.00" timeLoss="34.09" rerouteNo="0" devices="tripinfo_southNorth.7 ssm_southNorth.7" vType="carCustom" speedFactor="0.93" vaporized=""/>
    <tripinfo id="southEast.8" depart="65.00" departLane="southJunction_0" departPos="5.10" departSpeed="18.45" departDelay="0.19" arrival="131.00" arrivalLane="junctionEast_0" arrivalPos="492.80" arrivalSpeed="27.43" duration="66.00" routeLength="989.53" waitingTime="0.00" waitingCount="0" stopTime="0.00" timeLoss="29.31" rerouteNo="0" devices="tripinfo_southEast.8 ssm_southEast.8" vType="carCustom" speedFactor="1.03" vaporized=""/>
    <tripinfo id="westEastTop.13" depart="61.00" departLane="westJunction_1" departPos="5.10" departSpeed="10.23" departDelay="0.15" arrival="137.00" arrivalLane="junctionEast_1" arrivalPos="492.80" arrivalSpeed="27.41" duration="76.00" routeLength="994.90" waitingTime="0.00" waitingCount="0" stopTime="0.00" timeLoss="39.47" rerouteNo="0" devices="tripinfo_westEastTop.13 ssm_westEastTop.13" vType="carCustom" speedFactor="0.91" vaporized=""/>
    <tripinfo id="southNorth.8" depart="63.00" departLane="southJunction_1" departPos="5.10" departSpeed="14.84" departDelay="2.56" arrival="140.00" arrivalLane="junctionNorth_0" arrivalPos="492.80" arrivalSpeed="27.17" duration="77.00" routeLength="995.01" waitingTime="7.00" waitingCount="1" stopTime="0.00" timeLoss="40.23" rerouteNo="0" devices="tripinfo_southNorth.8 ssm_southNorth.8" vType="carCustom" speedFactor="1.00" vaporized=""/>
    <tripinfo id="westEastTop.14" depart="65.00" departLane="westJunction_1" departPos="5.10" departSpeed="11.86" departDelay="0.70" arrival="142.00" arrivalLane="junctionEast_1" arrivalPos="492.80" arrivalSpeed="27.20" duration="77.00" routeLength="994.90" waitingTime="0.00" waitingCount="0" stopTime="0.00" timeLoss="40.63" rerouteNo="0" devices="tripinfo_westEastTop.14 ssm_westEastTop.14" vType="carCustom" speedFactor="1.01" vaporized=""/>
    <tripinfo id="westEastBottom0.6" depart="87.00" departLane="westJunction_0" departPos="5.10" departSpeed="16.81" departDelay="0.39" arrival="146.00" arrivalLane="junctionEast_0" arrivalPos="492.80" arrivalSpeed="26.99" duration="59.00" routeLength="994.90" waitingTime="4.00" waitingCount="1" stopTime="0.00" timeLoss="21.84" rerouteNo="0" devices="tripinfo_westEastBottom0.6 ssm_westEastBottom0.6" vType="carCustom" speedFactor="1.08" vaporized=""/>
    <tripinfo id="westEastTop.15" depart="67.00" departLane="westJunction_1" departPos="5.10" departSpeed="10.79" departDelay="0.64" arrival="148.00" arrivalLane="junctionEast_1" arrivalPos="492.80" arrivalSpeed="26.57" duration="81.00" routeLength="994.90" waitingTime="1.00" waitingCount="1" stopTime="0.00" timeLoss="44.27" rerouteNo="0" devices="tripinfo_westEastTop.15 ssm_westEastTop.15" vType="carCustom" speedFactor="0.98" vaporized=""/>
    <tripinfo id="southNorth.9" depart="65.00" departLane="southJunction_1" departPos="5.10" departSpeed="10.65" departDelay="4.38" arrival="151.00" arrivalLane="junctionNorth_0" arrivalPos="492.80" arrivalSpeed="26.61" duration="86.00" routeLength="995.01" waitingTime="9.00" waitingCount="2" stopTime="0.00" timeLoss="49.53" rerouteNo="0" devices="tripinfo_southNorth.9 ssm_southNorth.9" vType="carCustom" speedFactor="1.08" vaporized=""/>
    <tripinfo id="southEast.9" depart="89.00" departLane="southJunction_0" departPos="5.10" departSpeed="14.29" departDelay="0.56" arrival="152.00" arrivalLane="junctionEast_0" arrivalPos="492.80" arrivalSpeed="27.64" duration="63.00" routeLength="989.53" waitingTime="2.00" waitingCount="1" stopTime="0.00" timeLoss="25.56" rerouteNo="0" devices="tripinfo_southEast.9 ssm_southEast.9" vType="carCustom" speedFactor="0.85" vaporized=""/>
    <tripinfo id="westEastTop.16" depart="71.00" departLane="westJunction_1" departPos="5.10" departSpeed="8.83" departDelay="0.71" arrival="155.00" arrivalLane="junctionEast_1" arrivalPos="492.80" arrivalSpeed="27.37" duration="84.00" routeLength="994.90" waitingTime="5.00" waitingCount="1" stopTime="0.00" timeLoss="47.50" rerouteNo="0" devices="tripinfo_westEastTop.16 ssm_westEastTop.16" vType="carCustom" speedFactor="0.99" vaporized=""/>
    <tripinfo id="southEast.10" depart="93.00" departLane="southJunction_0" departPos="5.10" departSpeed="15.25" departDelay="0.88" arrival="157.00" arrivalLane="junctionEast_0" arrivalPos="492.80" arrivalSpeed="26.87" duration="64.00" routeLength="989.53" waitingTime="0.00" waitingCount="0" stopTime="0.00" timeLoss="27.28" rerouteNo="0" devices="tripinfo_southEast.10 ssm_southEast.10" vType="carCustom" speedFactor="1.03" vaporized=""/>
    <tripinfo id="southNorth.10" depart="67.00" departLane="southJunction_1" departPos="5.10" departSpeed="7.09" departDelay="2.29" arrival="160.00" arrivalLane="junctionNorth_0" arrivalPos="492.80" arrivalSpeed="27.55" duration="93.00" routeLength="995.01" waitingTime="6.00" waitingCount="2" stopTime="0.00" timeLoss="56.37" rerouteNo="0" devices="tripinfo_southNorth.10 ssm_southNorth.10" vType="carCustom" speedFactor="1.07" vaporized=""/>
    <tripinfo id="westEastTop.17" depart="75.00" departLane="westJunction_1" departPos="5.10" departSpeed="8.62" departDelay="0.86" arrival="160.00" arrivalLane="junctionEast_1" arrivalPos="492.80" arrivalSpeed="27.67" duration="85.00" routeLength="994.90" waitingTime="1.00" waitingCount="1" stopTime="0.00" timeLoss="49.11" rerouteNo="0" devices="tripinfo_westEastTop.17 ssm_westEastTop.17" vType="carCustom" speedFactor="0.98" vaporized=""/>
    <tripinfo id="westEastBottom0.7" depart="90.00" departLane="westJunction_0" departPos="5.10" departSpeed="16.39" departDelay="0.39" arrival="162.00" arrivalLane="junctionEast_0" arrivalPos="492.80" arrivalSpeed="26.71" duration="72.00" routeLength="994.90" waitingTime="3.00" waitingCount="1" stopTime="0.00" timeLoss="35.88" rerouteNo="0" devices="tripinfo_westEastBottom0.7 ssm_westEastBottom0.7" vType="carCustom" speedFactor="1.16" vaporized=""/>
    <tripinfo id="southNorth.11" depart="70.00" departLane="southJunction_1" departPos="5.10" departSpeed="5.88" departDelay="1.52" arrival="165.00" arrivalLane="junctionNorth_0" arrivalPos="492.80" arrivalSpeed="26.50" duration="95.00" routeLength="995.01" waitingTime="2.00" waitingCount="1" stopTime="0.00" timeLoss="59.09" rerouteNo="0" devices="tripinfo_southNorth.11 ssm_southNorth.11" vType="carCustom" speedFactor="1.12" vaporized=""/>
    <tripinfo id="westEastBottom0.8" depart="113.00" departLane="westJunction_0" departPos="5.10" departSpeed="15.80" departDelay="0.66" arrival="166.00" arrivalLane="junctionEast_1" arrivalPos="492.80" arrivalSpeed="27.08" duration="53.00" routeLength="994.90" waitingTime="0.00" waitingCount="0" stopTime="0.00" timeLoss="16.70" rerouteNo="0" devices="tripinfo_westEastBottom0.8 ssm_westEastBottom0.8" vType="carCustom" speedFactor="0.90" vaporized=""/>
    <tripinfo id="southEast.11" depart="138.00" departLane="southJunction_0" departPos="5.10" departSpeed="27.78" departDelay="0.57" arrival="166.00" arrivalLane="junctionEast_0" arrivalPos="492.80" arrivalSpeed="6.13" duration="28.00" routeLength="989.53" waitingTime="0.00" waitingCount="0" stopTime="0.00" timeLoss="9.61" rerouteNo="0" devices="tripinfo_southEast.11 ssm_southEast.11" vType="carCustom" speedFactor="1.03" vaporized="teleport"/>
    <tripinfo id="southNorth.12" depart="73.00" departLane="southJunction_1" departPos="5.10" departSpeed="5.88" departDelay="0.28" arrival="171.00" arrivalLane="junctionNorth_0" arrivalPos="492.80" arrivalSpeed="26.80" duration="98.00" routeLength="995.01" waitingTime="3.00" waitingCount="2" stopTime="0.00" timeLoss="61.94" rerouteNo="0" devices="tripinfo_southNorth.12 ssm_southNorth.12" vType="carCustom" speedFactor="1.03" vaporized=""/>
    <tripinfo id="westEastTop.18" depart="78.00" departLane="westJunction_1" departPos="5.10" departSpeed="8.41" departDelay="0.53" arrival="171.00" arrivalLane="junctionEast_1" arrivalPos="492.80" arrivalSpeed="27.33" duration="93.00" routeLength="994.90" waitingTime="2.00" waitingCount="1" stopTime="0.00" timeLoss="56.85" rerouteNo="0" devices="tripinfo_westEastTop.18 ssm_westEastTop.18" vType="carCustom" speedFactor="0.97" vaporized=""/>
    <tripinfo id="westEastBottom0.10" depart="121.00" departLane="westJunction_0" departPos="5.10" departSpeed="16.64" departDelay="0.11" arrival="176.00" arrivalLane="junctionEast_1" arrivalPos="492.80" arrivalSpeed="27.08" duration="55.00" routeLength="994.90" waitingTime="0.00" waitingCount="0" stopTime="0.00" timeLoss="19.03" rerouteNo="0" devices="tripinfo_westEastBottom0.10 ssm_westEastBottom0.10" vType="carCustom" speedFactor="0.94" vaporized=""/>
    <tripinfo id="southNorth.13" depart="79.00" departLane="southJunction_1" departPos="5.10" departSpeed="6.62" departDelay="0.47" arrival="179.00" arrivalLane="junctionNorth_0" arrivalPos="492.80" arrivalSpeed="27.36" duration="100.00" routeLength="995.01" waitingTime="5.00" waitingCount="1" stopTime="0.00" timeLoss="64.01" rerouteNo="0" devices="tripinfo_southNorth.13 ssm_southNorth.13" vType="carCustom" speedFactor="0.98" vaporized=""/>
    <tripinfo id="westEastTop.19" depart="91.00" departLane="westJunction_1" departPos="5.10" departSpeed="9.09" departDelay="0.68" arrival="181.00" arrivalLane="junctionEast_1" arrivalPos="492.80" arrivalSpeed="26.71" duration="90.00" routeLength="994.90" waitingTime="5.00" waitingCount="1" stopTime="0.00" timeLoss="54.04" rerouteNo="0" devices="tripinfo_westEastTop.19 ssm_westEastTop.19" vType="carCustom" speedFactor="1.14" vaporized=""/>
    <tripinfo id="southNorth.14" depart="86.00" departLane="southJunction_1" departPos="5.10" departSpeed="7.99" departDelay="0.13" arrival="185.00" arrivalLane="junctionNorth_0" arrivalPos="492.80" arrivalSpeed="27.48" duration="99.00" routeLength="995.01" waitingTime="2.00" waitingCount="1" stopTime="0.00" timeLoss="62.63" rerouteNo="0" devices="tripinfo_southNorth.14 ssm_southNorth.14" vType="carCustom" speedFactor="0.91" vaporized=""/>
    <tripinfo id="westEastTop.20" depart="93.00" departLane="westJunction_1" departPos="5.10" departSpeed="12.20" departDelay="0.52" arrival="185.00" arrivalLane="junctionEast_0" arrivalPos="492.80" arrivalSpeed="27.18" duration="92.00" routeLength="994.90" waitingTime="3.00" waitingCount="1" stopTime="0.00" timeLoss="56.15" rerouteNo="0" devices="tripinfo_westEastTop.20 ssm_westEastTop.20" vType="carCustom" speedFactor="1.07" vaporized=""/>
    <tripinfo id="westEastTop.21" depart="107.00" departLane="westJunction_1" departPos="5.10" departSpeed="11.14" departDelay="0.62" arrival="189.00" arrivalLane="junctionEast_1" arrivalPos="492.80" arrivalSpeed="27.22" duration="82.00" routeLength="994.90" waitingTime="2.00" waitingCount="1" stopTime="0.00" timeLoss="45.56" rerouteNo="0" devices="tripinfo_westEastTop.21 ssm_westEastTop.21" vType="carCustom" speedFactor="1.04" vaporized=""/>
    <tripinfo id="westEastBottom0.12" depart="134.00" departLane="westJunction_0" departPos="5.10" departSpeed="18.29" departDelay="0.90" arrival="191.00" arrivalLane="junctionEast_0" arrivalPos="492.80" arrivalSpeed="27.49" duration="57.00" routeLength="994.90" waitingTime="0.00" waitingCount="0" stopTime="0.00" timeLoss="20.59" rerouteNo="0" devices="tripinfo_westEastBottom0.12 ssm_westEastBottom0.12" vType="carCustom" speedFactor="0.92" vaporized=""/>
    <tripinfo id="westEastTop.22" depart="111.00" departLane="westJunction_1" departPos="5.10" departSpeed="19.06" departDelay="0.45" arrival="194.00" arrivalLane="junctionEast_1" arrivalPos="492.80" arrivalSpeed="26.52" duration="83.00" routeLength="994.90" waitingTime="0.00" waitingCount="0" stopTime="0.00" timeLoss="46.78" rerouteNo="0" devices="tripinfo_westEastTop.22 ssm_westEastTop.22" vType="carCustom" speedFactor="1.09" vaporized=""/>
    <tripinfo id="southNorth.15" depart="89.00" departLane="southJunction_1" departPos="5.10" departSpeed="10.75" departDelay="0.23" arrival="197.00" arrivalLane="junctionNorth_0" arrivalPos="492.80" arrivalSpeed="26.87" duration="108.00" routeLength="995.01" waitingTime="11.00" waitingCount="2" stopTime="0.00" timeLoss="71.95" rerouteNo="0" devices="tripinfo_southNorth.15 ssm_southNorth.15" vType="carCustom" speedFactor="0.93" vaporized=""/>
    <tripinfo id="westEastBottom0.9" depart="119.00" departLane="westJunction_0" departPos="5.10" departSpeed="16.71" departDelay="0.34" arrival="199.00" arrivalLane="junctionEast_1" arrivalPos="492.80" arrivalSpeed="26.69" duration="80.00" routeLength="994.90" waitingTime="0.00" waitingCount="0" stopTime="0.00" timeLoss="43.81" rerouteNo="0" devices="tripinfo_westEastBottom0.9 ssm_westEastBottom0.9" vType="carCustom" speedFactor="1.12" vaporized=""/>