<?xml version="1.0" encoding="UTF-8"?>

<!-- generated on 2025-04-29 05:04:05 by Eclipse SUMO sumo Version 1.20.0
<configuration xmlns:xsi="http://www.w3.org/2001/XMLSchema-instance" xsi:noNamespaceSchemaLocation="http://sumo.dlr.de/xsd/sumoConfiguration.xsd">

    <input>
        <net-file value="nets/2lane_unprotected_right/2lane_unprotected_right.net.xml"/>
        <route-files value="nets/2lane_unprotected_right/2lane_unprotected_right.rou.xml"/>
    </input>

    <output>
        <tripinfo-output value="traces/transs50f1_s50_f0.5_random/0043_tripinfo.xml"/>
        <collision-output value="traces/transs50f1_s50_f0.5_random/0043_collisions.xml"/>
        <statistic-output value="traces/transs50f1_s50_f0.5_random/0043_statistics.xml"/>
    </output>

    <processing>
        <collision.action value="teleport"/>
        <collision.check-junctions value="true"/>
        <time-to-teleport value="-1"/>
        <waiting-time-memory value="1000"/>
        <max-depart-delay value="-1"/>
        <default.speeddev value="0.1"/>
    </processing>

    <report>
        <no-warnings value="true"/>
    </report>

    <ssm_device>
        <device.ssm.probability value="1.0"/>
        <device.ssm.measures value="BR"/>
        <device.ssm.file value="/Users/finn/Code/CausalKnowledgeTransfer-4-SafeRL/traces/transs50f1_s50_f0.5_random/0043_ssm.xml"/>
    </ssm_device>

    <traci_server>
        <remote-port value="62941"/>
    </traci_server>

    <random_number>
        <random value="true"/>
    </random_number>

</configuration>
-->

<tripinfos xmlns:xsi="http://www.w3.org/2001/XMLSchema-instance" xsi:noNamespaceSchemaLocation="http://sumo.dlr.de/xsd/tripinfo_file.xsd">
    <tripinfo id="southNorth.0" depart="1.00" departLane="southJunction_1" departPos="5.10" departSpeed="27.78" departDelay="0.37" arrival="40.00" arrivalLane="junctionNorth_0" arrivalPos="492.80" arrivalSpeed="27.47" duration="39.00" routeLength="995.01" waitingTime="0.00" waitingCount="0" stopTime="0.00" timeLoss="2.91" rerouteNo="0" devices="tripinfo_southNorth.0 ssm_southNorth.0" vType="carCustom" speedFactor="1.18" vaporized=""/>
    <tripinfo id="westEastTop.0" depart="5.00" departLane="westJunction_1" departPos="5.10" departSpeed="27.78" departDelay="0.91" arrival="46.00" arrivalLane="junctionEast_1" arrivalPos="492.80" arrivalSpeed="27.06" duration="41.00" routeLength="994.90" waitingTime="0.00" waitingCount="0" stopTime="0.00" timeLoss="4.64" rerouteNo="0" devices="tripinfo_westEastTop.0 ssm_westEastTop.0" vType="carCustom" speedFactor="0.94" vaporized=""/>
    <tripinfo id="southEast.0" depart="1.00" departLane="southJunction_0" departPos="5.10" departSpeed="27.78" departDelay="0.79" arrival="47.00" arrivalLane="junctionEast_0" arrivalPos="492.80" arrivalSpeed="26.95" duration="46.00" routeLength="989.53" waitingTime="0.00" waitingCount="0" stopTime="0.00" timeLoss="8.77" rerouteNo="0" devices="tripinfo_southEast.0 ssm_southEast.0" vType="carCustom" speedFactor="0.86" vaporized=""/>
    <tripinfo id="westEastTop.1" depart="7.00" departLane="westJunction_1" departPos="5.10" departSpeed="26.56" departDelay="1.26" arrival="48.00" arrivalLane="junctionEast_1" arrivalPos="492.80" arrivalSpeed="27.18" duration="41.00" routeLength="994.90" waitingTime="0.00" waitingCount="0" stopTime="0.00" timeLoss="4.33" rerouteNo="0" devices="tripinfo_westEastTop.1 ssm_westEastTop.1" vType="carCustom" speedFactor="1.05" vaporized=""/>
    <tripinfo id="westEastBottom0.0" depart="6.00" departLane="westJunction_0" departPos="5.10" departSpeed="27.78" departDelay="0.70" arrival="49.00" arrivalLane="junctionEast_0" arrivalPos="492.80" arrivalSpeed="27.01" duration="43.00" routeLength="994.90" waitingTime="0.00" waitingCount="0" stopTime="0.00" timeLoss="6.74" rerouteNo="0" devices="tripinfo_westEastBottom0.0 ssm_westEastBottom0.0" vType="carCustom" speedFactor="0.97" vaporized=""/>
    <tripinfo id="westEastTop.2" depart="9.00" departLane="westJunction_1" departPos="5.10" departSpeed="27.24" departDelay="0.79" arrival="49.00" arrivalLane="junctionEast_1" arrivalPos="492.80" arrivalSpeed="27.13" duration="40.00" routeLength="994.90" waitingTime="0.00" waitingCount="0" stopTime="0.00" timeLoss="3.99" rerouteNo="0" devices="tripinfo_westEastTop.2 ssm_westEastTop.2" vType="carCustom" speedFactor="0.85" vaporized=""/>
    <tripinfo id="westEastBottom0.1" depart="8.00" departLane="westJunction_0" departPos="5.10" departSpeed="26.56" departDelay="0.48" arrival="51.00" arrivalLane="junctionEast_0" arrivalPos="492.80" arrivalSpeed="26.89" duration="43.00" routeLength="994.90" waitingTime="0.00" waitingCount="0" stopTime="0.00" timeLoss="6.42" rerouteNo="0" devices="tripinfo_westEastBottom0.1 ssm_westEastBottom0.1" vType="carCustom" speedFactor="0.94" vaporized=""/>
    <tripinfo id="westEastTop.3" depart="11.00" departLane="westJunction_1" departPos="5.10" departSpeed="27.66" departDelay="2.08" arrival="51.00" arrivalLane="junctionEast_1" arrivalPos="492.80" arrivalSpeed="26.72" duration="40.00" routeLength="994.90" waitingTime="0.00" waitingCount="0" stopTime="0.00" timeLoss="3.64" rerouteNo="0" devices="tripinfo_westEastTop.3 ssm_westEastTop.3" vType="carCustom" speedFactor="0.94" vaporized=""/>
    <tripinfo id="westEastTop.4" depart="13.00" departLane="westJunction_1" departPos="5.10" departSpeed="27.25" departDelay="3.98" arrival="53.00" arrivalLane="junctionEast_1" arrivalPos="492.80" arrivalSpeed="27.71" duration="40.00" routeLength="994.90" waitingTime="0.00" waitingCount="0" stopTime="0.00" timeLoss="3.26" rerouteNo="0" devices="tripinfo_westEastTop.4 ssm_westEastTop.4" vType="carCustom" speedFactor="1.01" vaporized=""/>
    <tripinfo id="southEast.1" depart="9.00" departLane="southJunction_0" departPos="5.10" departSpeed="26.85" departDelay="0.00" arrival="55.00" arrivalLane="junctionEast_0" arrivalPos="492.80" arrivalSpeed="27.18" duration="46.00" routeLength="989.53" waitingTime="0.00" waitingCount="0" stopTime="0.00" timeLoss="8.33" rerouteNo="0" devices="tripinfo_southEast.1 ssm_southEast.1" vType="carCustom" speedFactor="0.93" vaporized=""/>
    <tripinfo id="westEastTop.5" depart="18.00" departLane="westJunction_1" departPos="5.10" departSpeed="27.19" departDelay="0.16" arrival="55.00" arrivalLane="junctionEast_1" arrivalPos="492.80" arrivalSpeed="26.79" duration="37.00" routeLength="994.90" waitingTime="0.00" waitingCount="0" stopTime="0.00" timeLoss="0.87" rerouteNo="0" devices="tripinfo_westEastTop.5 ssm_westEastTop.5" vType="carCustom" speedFactor="1.12" vaporized=""/>
    <tripinfo id="westEastBottom0.2" depart="19.00" departLane="westJunction_0" departPos="5.10" departSpeed="26.96" departDelay="0.52" arrival="57.00" arrivalLane="junctionEast_1" arrivalPos="492.80" arrivalSpeed="27.33" duration="38.00" routeLength="994.90" waitingTime="0.00" waitingCount="0" stopTime="0.00" timeLoss="1.50" rerouteNo="0" devices="tripinfo_westEastBottom0.2 ssm_westEastBottom0.2" vType="carCustom" speedFactor="1.14" vaporized=""/>
    <tripinfo id="westEastBottom0.3" depart="36.00" departLane="westJunction_0" departPos="5.10" departSpeed="26.66" departDelay="0.89" arrival="57.00" arrivalLane="junctionEast_0" arrivalPos="492.80" arrivalSpeed="7.60" duration="21.00" routeLength="994.90" waitingTime="0.00" waitingCount="0" stopTime="0.00" timeLoss="2.69" rerouteNo="0" devices="tripinfo_westEastBottom0.3 ssm_westEastBottom0.3" vType="carCustom" speedFactor="0.94" vaporized="teleport"/>
    <tripinfo id="southNorth.1" depart="24.00" departLane="southJunction_1" departPos="5.10" departSpeed="27.78" departDelay="0.86" arrival="65.00" arrivalLane="junctionNorth_0" arrivalPos="492.80" arrivalSpeed="26.74" duration="41.00" routeLength="995.01" waitingTime="0.00" waitingCount="0" stopTime="0.00" timeLoss="4.42" rerouteNo="0" devices="tripinfo_southNorth.1 ssm_southNorth.1" vType="carCustom" speedFactor="0.98" vaporized=""/>
    <tripinfo id="westEastTop.6" depart="26.00" departLane="westJunction_1" departPos="5.10" departSpeed="27.42" departDelay="0.72" arrival="73.00" arrivalLane="junctionEast_0" arrivalPos="492.80" arrivalSpeed="26.72" duration="47.00" routeLength="994.90" waitingTime="4.00" waitingCount="1" stopTime="0.00" timeLoss="10.83" rerouteNo="0" devices="tripinfo_westEastTop.6 ssm_westEastTop.6" vType="carCustom" speedFactor="1.18" vaporized=""/>
    <tripinfo id="westEastTop.7" depart="32.00" departLane="westJunction_1" departPos="5.10" departSpeed="26.89" departDelay="0.20" arrival="75.00" arrivalLane="junctionEast_1" arrivalPos="492.80" arrivalSpeed="26.62" duration="43.00" routeLength="994.90" waitingTime="0.00" waitingCount="0" stopTime="0.00" timeLoss="7.14" rerouteNo="0" devices="tripinfo_westEastTop.7 ssm_westEastTop.7" vType="carCustom" speedFactor="0.87" vaporized=""/>
    <tripinfo id="westEastTop.8" depart="37.00" departLane="westJunction_1" departPos="5.10" departSpeed="26.74" departDelay="0.67" arrival="77.00" arrivalLane="junctionEast_1" arrivalPos="492.80" arrivalSpeed="26.54" duration="40.00" routeLength="994.90" waitingTime="0.00" waitingCount="0" stopTime="0.00" timeLoss="3.80" rerouteNo="0" devices="tripinfo_westEastTop.8 ssm_westEastTop.8" vType="carCustom" speedFactor="0.99" vaporized=""/>
    <tripinfo id="southEast.2" depart="33.00" departLane="southJunction_0" departPos="5.10" departSpeed="27.78" departDelay="0.12" arrival="78.00" arrivalLane="junctionEast_0" arrivalPos="492.80" arrivalSpeed="26.94" duration="45.00" routeLength="989.53" waitingTime="0.00" waitingCount="0" stopTime="0.00" timeLoss="7.61" rerouteNo="0" devices="tripinfo_southEast.2 ssm_southEast.2" vType="carCustom" speedFactor="1.03" vaporized=""/>
    <tripinfo id="westEastTop.9" depart="40.00" departLane="westJunction_1" departPos="5.10" departSpeed="26.79" departDelay="0.25" arrival="79.00" arrivalLane="junctionEast_1" arrivalPos="492.80" arrivalSpeed="27.48" duration="39.00" routeLength="994.90" waitingTime="0.00" waitingCount="0" stopTime="0.00" timeLoss="2.50" rerouteNo="0" devices="tripinfo_westEastTop.9 ssm_westEastTop.9" vType="carCustom" speedFactor="1.12" vaporized=""/>
    <tripinfo id="westEastTop.10" depart="42.00" departLane="westJunction_1" departPos="5.10" departSpeed="26.73" departDelay="0.71" arrival="81.00" arrivalLane="junctionEast_1" arrivalPos="492.80" arrivalSpeed="27.44" duration="39.00" routeLength="994.90" waitingTime="0.00" waitingCount="0" stopTime="0.00" timeLoss="2.22" rerouteNo="0" devices="tripinfo_westEastTop.10 ssm_westEastTop.10" vType="carCustom" speedFactor="0.93" vaporized=""/>
    <tripinfo id="westEastTop.11" depart="44.00" departLane="westJunction_1" departPos="5.10" departSpeed="26.51" departDelay="0.77" arrival="82.00" arrivalLane="junctionEast_1" arrivalPos="492.80" arrivalSpeed="27.37" duration="38.00" routeLength="994.90" waitingTime="0.00" waitingCount="0" stopTime="0.00" timeLoss="1.85" rerouteNo="0" devices="tripinfo_westEastTop.11 ssm_westEastTop.11" vType="carCustom" speedFactor="1.18" vaporized=""/>
    <tripinfo id="southNorth.2" depart="38.00" departLane="southJunction_1" departPos="5.10" departSpeed="26.94" departDelay="0.39" arrival="89.00" arrivalLane="junctionNorth_0" arrivalPos="492.80" arrivalSpeed="27.41" duration="51.00" routeLength="995.01" waitingTime="4.00" waitingCount="1" stopTime="0.00" timeLoss="14.36" rerouteNo="0" devices="tripinfo_southNorth.2 ssm_southNorth.2" vType="carCustom" speedFactor="0.90" vaporized=""/>
    <tripinfo id="westEastBottom0.4" depart="47.00" departLane="westJunction_0" departPos="5.10" departSpeed="27.73" departDelay="0.02" arrival="92.00" arrivalLane="junctionEast_0" arrivalPos="492.80" arrivalSpeed="27.03" duration="45.00" routeLength="994.90" waitingTime="0.00" waitingCount="0" stopTime="0.00" timeLoss="8.46" rerouteNo="0" devices="tripinfo_westEastBottom0.4 ssm_westEastBottom0.4" vType="carCustom" speedFactor="1.08" vaporized=""/>
    <tripinfo id="westEastBottom0.5" depart="50.00" departLane="westJunction_0" departPos="5.10" departSpeed="26.70" departDelay="0.17" arrival="93.00" arrivalLane="junctionEast_0" arrivalPos="492.80" arrivalSpeed="27.60" duration="43.00" routeLength="994.90" waitingTime="0.00" waitingCount="0" stopTime="0.00" timeLoss="7.09" rerouteNo="0" devices="tripinfo_westEastBottom0.5 ssm_westEastBottom0.5" vType="carCustom" speedFactor="1.07" vaporized=""/>
    <tripinfo id="westEastTop.12" depart="46.00" departLane="westJunction_1" departPos="5.10" departSpeed="27.03" departDelay="0.04" arrival="94.00" arrivalLane="junctionEast_1" arrivalPos="492.80" arrivalSpeed="26.66" duration="48.00" routeLength="994.90" waitingTime="1.00" waitingCount="1" stopTime="0.00" timeLoss="12.16" rerouteNo="0" devices="tripinfo_westEastTop.12 ssm_westEastTop.12" vType="carCustom" speedFactor="0.91" vaporized=""/>
    <tripinfo id="southNorth.3" depart="43.00" departLane="southJunction_1" departPos="5.10" departSpeed="27.75" departDelay="0.77" arrival="98.00" arrivalLane="junctionNorth_0" arrivalPos="492.80" arrivalSpeed="27.56" duration="55.00" routeLength="995.01" waitingTime="5.00" waitingCount="1" stopTime="0.00" timeLoss="19.06" rerouteNo="0" devices="tripinfo_southNorth.3 ssm_southNorth.3" vType="carCustom" speedFactor="1.06" vaporized=""/>
    <tripinfo id="southNorth.4" depart="49.00" departLane="southJunction_1" departPos="5.10" departSpeed="26.86" departDelay="0.84" arrival="100.00" arrivalLane="junctionNorth_0" arrivalPos="492.80" arrivalSpeed="27.71" duration="51.00" routeLength="995.01" waitingTime="4.00" waitingCount="1" stopTime="0.00" timeLoss="14.72" rerouteNo="0" devices="tripinfo_southNorth.4 ssm_southNorth.4" vType="carCustom" speedFactor="0.96" vaporized=""/>
    <tripinfo id="southEast.3" depart="56.00" departLane="southJunction_0" departPos="5.10" departSpeed="27.78" departDelay="0.13" arrival="102.00" arrivalLane="junctionEast_0" arrivalPos="492.80" arrivalSpeed="27.35" duration="46.00" routeLength="989.53" waitingTime="0.00" waitingCount="0" stopTime="0.00" timeLoss="8.51" rerouteNo="0" devices="tripinfo_southEast.3 ssm_southEast.3" vType="carCustom" speedFactor="0.91" vaporized=""/>
    <tripinfo id="westEastTop.13" depart="50.00" departLane="westJunction_1" departPos="5.10" departSpeed="27.65" departDelay="0.34" arrival="103.00" arrivalLane="junctionEast_1" arrivalPos="492.80" arrivalSpeed="27.05" duration="53.00" routeLength="994.90" waitingTime="5.00" waitingCount="1" stopTime="0.00" timeLoss="16.89" rerouteNo="0" devices="tripinfo_westEastTop.13 ssm_westEastTop.13" vType="carCustom" speedFactor="1.07" vaporized=""/>
    <tripinfo id="westEastTop.14" depart="53.00" departLane="westJunction_1" departPos="5.10" departSpeed="26.99" departDelay="0.65" arrival="105.00" arrivalLane="junctionEast_1" arrivalPos="492.80" arrivalSpeed="26.92" duration="52.00" routeLength="994.90" waitingTime="4.00" waitingCount="1" stopTime="0.00" timeLoss="15.67" rerouteNo="0" devices="tripinfo_westEastTop.14 ssm_westEastTop.14" vType="carCustom" speedFactor="0.89" vaporized=""/>
    <tripinfo id="southNorth.5" depart="53.00" departLane="southJunction_1" departPos="5.10" departSpeed="26.87" departDelay="0.35" arrival="109.00" arrivalLane="junctionNorth_0" arrivalPos="492.80" arrivalSpeed="27.37" duration="56.00" routeLength="995.01" waitingTime="3.00" waitingCount="2" stopTime="0.00" timeLoss="19.33" rerouteNo="0" devices="tripinfo_southNorth.5 ssm_southNorth.5" vType="carCustom" speedFactor="1.02" vaporized=""/>
    <tripinfo id="southNorth.6" depart="58.00" departLane="southJunction_1" departPos="5.10" departSpeed="27.18" departDelay="0.99" arrival="111.00" arrivalLane="junctionNorth_0" arrivalPos="492.80" arrivalSpeed="27.68" duration="53.00" routeLength="995.01" waitingTime="1.00" waitingCount="1" stopTime="0.00" timeLoss="16.63" rerouteNo="0" devices="tripinfo_southNorth.6 ssm_southNorth.6" vType="carCustom" speedFactor="0.86" vaporized=""/>
    <tripinfo id="westEastBottom0.6" depart="63.00" departLane="westJunction_0" departPos="5.10" departSpeed="27.13" departDelay="0.31" arrival="113.00" arrivalLane="junctionEast_1" arrivalPos="492.80" arrivalSpeed="26.75" duration="50.00" routeLength="994.90" waitingTime="3.00" waitingCount="1" stopTime="0.00" timeLoss="13.80" rerouteNo="0" devices="tripinfo_westEastBottom0.6 ssm_westEastBottom0.6" vType="carCustom" speedFactor="0.92" vaporized=""/>
    <tripinfo id="westEastBottom0.7" depart="66.00" departLane="westJunction_0" departPos="5.10" departSpeed="26.72" departDelay="0.89" arrival="113.00" arrivalLane="junctionEast_0" arrivalPos="492.80" arrivalSpeed="26.54" duration="47.00" routeLength="994.90" waitingTime="0.00" waitingCount="0" stopTime="0.00" timeLoss="10.48" rerouteNo="0" devices="tripinfo_westEastBottom0.7 ssm_westEastBottom0.7" vType="carCustom" speedFactor="0.88" vaporized=""/>
    <tripinfo id="westEastTop.15" depart="66.00" departLane="westJunction_1" departPos="5.10" departSpeed="27.03" departDelay="0.30" arrival="115.00" arrivalLane="junctionEast_1" arrivalPos="492.80" arrivalSpeed="27.43" duration="49.00" routeLength="994.90" waitingTime="0.00" waitingCount="0" stopTime="0.00" timeLoss="13.13" rerouteNo="0" devices="tripinfo_westEastTop.15 ssm_westEastTop.15" vType="carCustom" speedFactor="1.06" vaporized=""/>
    <tripinfo id="southNorth.7" depart="60.00" departLane="southJunction_1" departPos="5.10" departSpeed="26.76" departDelay="2.23" arrival="119.00" arrivalLane="junctionNorth_0" arrivalPos="492.80" arrivalSpeed="27.47" duration="59.00" routeLength="995.01" waitingTime="2.00" waitingCount="1" stopTime="0.00" timeLoss="22.43" rerouteNo="0" devices="tripinfo_southNorth.7 ssm_southNorth.7" vType="carCustom" speedFactor="1.11" vaporized=""/>
    <tripinfo id="southEast.4" depart="73.00" departLane="southJunction_0" departPos="5.10" departSpeed="16.02" departDelay="0.20" arrival="119.00" arrivalLane="junctionEast_0" arrivalPos="492.80" arrivalSpeed="26.80" duration="46.00" routeLength="989.53" waitingTime="0.00" waitingCount="0" stopTime="0.00" timeLoss="9.29" rerouteNo="0" devices="tripinfo_southEast.4 ssm_southEast.4" vType="carCustom" speedFactor="0.98" vaporized=""/>
    <tripinfo id="southNorth.8" depart="62.00" departLane="southJunction_1" departPos="5.10" departSpeed="26.85" departDelay="2.01" arrival="120.00" arrivalLane="junctionNorth_0" arrivalPos="492.80" arrivalSpeed="27.55" duration="58.00" routeLength="995.01" waitingTime="1.00" waitingCount="1" stopTime="0.00" timeLoss="22.13" rerouteNo="0" devices="tripinfo_southNorth.8 ssm_southNorth.8" vType="carCustom" speedFactor="0.83" vaporized=""/>
    <tripinfo id="southNorth.9" depart="66.00" departLane="southJunction_1" departPos="5.10" departSpeed="27.09" departDelay="0.20" arrival="122.00" arrivalLane="junctionNorth_0" arrivalPos="492.80" arrivalSpeed="27.66" duration="56.00" routeLength="995.01" waitingTime="0.00" waitingCount="0" stopTime="0.00" timeLoss="20.11" rerouteNo="0" devices="tripinfo_southNorth.9 ssm_southNorth.9" vType="carCustom" speedFactor="1.06" vaporized=""/>
    <tripinfo id="westEastTop.16" depart="68.00" departLane="westJunction_1" departPos="5.10" departSpeed="27.09" departDelay="0.29" arrival="127.00" arrivalLane="junctionEast_1" arrivalPos="492.80" arrivalSpeed="27.28" duration="59.00" routeLength="994.90" waitingTime="4.00" waitingCount="1" stopTime="0.00" timeLoss="22.25" rerouteNo="0" devices="tripinfo_westEastTop.16 ssm_westEastTop.16" vType="carCustom" speedFactor="1.00" vaporized=""/>
    <tripinfo id="southEast.5" depart="81.00" departLane="southJunction_0" departPos="5.10" departSpeed="27.42" departDelay="0.38" arrival="127.00" arrivalLane="junctionEast_0" arrivalPos="492.80" arrivalSpeed="26.59" duration="46.00" routeLength="989.53" waitingTime="0.00" waitingCount="0" stopTime="0.00" timeLoss="8.52" rerouteNo="0" devices="tripinfo_southEast.5 ssm_southEast.5" vType="carCustom" speedFactor="0.88" vaporized=""/>
    <tripinfo id="westEastBottom0.8" depart="83.00" departLane="westJunction_0" departPos="5.10" departSpeed="18.14" departDelay="0.29" arrival="128.00" arrivalLane="junctionEast_1" arrivalPos="492.80" arrivalSpeed="27.42" duration="45.00" routeLength="994.90" waitingTime="0.00" waitingCount="0" stopTime="0.00" timeLoss="8.90" rerouteNo="0" devices="tripinfo_westEastBottom0.8 ssm_westEastBottom0.8" vType="carCustom" speedFactor="1.00" vaporized=""/>
    <tripinfo id="southEast.6" depart="83.00" departLane="southJunction_0" departPos="5.10" departSpeed="27.09" departDelay="1.23" arrival="129.00" arrivalLane="junctionEast_0" arrivalPos="492.80" arrivalSpeed="27.69" duration="46.00" routeLength="989.53" waitingTime="0.00" waitingCount="0" stopTime="0.00" timeLoss="9.16" rerouteNo="0" devices="tripinfo_southEast.6 ssm_southEast.6" vType="carCustom" speedFactor="1.15" vaporized=""/>
    <tripinfo id="westEastTop.17" depart="88.00" departLane="westJunction_1" departPos="5.10" departSpeed="7.13" departDelay="0.94" arrival="130.00" arrivalLane="junctionEast_1" arrivalPos="492.80" arrivalSpeed="27.16" duration="42.00" routeLength="994.90" waitingTime="0.00" waitingCount="0" stopTime="0.00" timeLoss="5.61" rerouteNo="0" devices="tripinfo_westEastTop.17 ssm_westEastTop.17" vType="carCustom" speedFactor="1.11" vaporized=""/>
    <tripinfo id="westEastBottom0.9" depart="91.00" departLane="westJunction_0" departPos="5.10" departSpeed="27.78" departDelay="0.99" arrival="131.00" arrivalLane="junctionEast_0" arrivalPos="492.80" arrivalSpeed="26.86" duration="40.00" routeLength="994.90" waitingTime="0.00" waitingCount="0" stopTime="0.00" timeLoss="3.55" rerouteNo="0" devices="tripinfo_westEastBottom0.9 ssm_westEastBottom0.9" vType="carCustom" speedFactor="1.03" vaporized=""/>
    <tripinfo id="westEastBottom0.10" depart="93.00" departLane="westJunction_0" departPos="5.10" departSpeed="23.18" departDelay="0.45" arrival="132.00" arrivalLane="junctionEast_1" arrivalPos="492.80" arrivalSpeed="26.67" duration="39.00" routeLength="994.90" waitingTime="0.00" waitingCount="0" stopTime="0.00" timeLoss="2.33" rerouteNo="0" devices="tripinfo_westEastBottom0.10 ssm_westEastBottom0.10" vType="carCustom" speedFactor="1.11" vaporized=""/>
    <tripinfo id="southNorth.10" depart="92.00" departLane="southJunction_1" departPos="5.10" departSpeed="4.03" departDelay="1.00" arrival="136.00" arrivalLane="junctionNorth_0" arrivalPos="492.80" arrivalSpeed="26.74" duration="44.00" routeLength="995.01" waitingTime="0.00" waitingCount="0" stopTime="0.00" timeLoss="7.84" rerouteNo="0" devices="tripinfo_southNorth.10 ssm_southNorth.10" vType="carCustom" speedFactor="0.95" vaporized=""/>
    <tripinfo id="southNorth.11" depart="95.00" departLane="southJunction_1" departPos="5.10" departSpeed="8.66" departDelay="1.13" arrival="138.00" arrivalLane="junctionNorth_0" arrivalPos="492.80" arrivalSpeed="27.44" duration="43.00" routeLength="995.01" waitingTime="0.00" waitingCount="0" stopTime="0.00" timeLoss="6.60" rerouteNo="0" devices="tripinfo_southNorth.11 ssm_southNorth.11" vType="carCustom" speedFactor="0.95" vaporized=""/>
    <tripinfo id="westEastTop.18" depart="103.00" departLane="westJunction_1" departPos="5.10" departSpeed="27.16" departDelay="0.45" arrival="141.00" arrivalLane="junctionEast_1" arrivalPos="492.80" arrivalSpeed="27.36" duration="38.00" routeLength="994.90" waitingTime="0.00" waitingCount="0" stopTime="0.00" timeLoss="1.55" rerouteNo="0" devices="tripinfo_westEastTop.18 ssm_westEastTop.18" vType="carCustom" speedFactor="1.07" vaporized=""/>
    <tripinfo id="westEastBottom0.11" depart="104.00" departLane="westJunction_0" departPos="5.10" departSpeed="27.22" departDelay="0.30" arrival="142.00" arrivalLane="junctionEast_0" arrivalPos="492.80" arrivalSpeed="26.85" duration="38.00" routeLength="994.90" waitingTime="0.00" waitingCount="0" stopTime="0.00" timeLoss="1.92" rerouteNo="0" devices="tripinfo_westEastBottom0.11 ssm_westEastBottom0.11" vType="carCustom" speedFactor="1.05" vaporized=""/>
    <tripinfo id="westEastTop.19" depart="105.00" departLane="westJunction_1" departPos="5.10" departSpeed="27.57" departDelay="2.11" arrival="143.00" arrivalLane="junctionEast_1" arrivalPos="492.80" arrivalSpeed="27.44" duration="38.00" routeLength="994.90" waitingTime="0.00" waitingCount="0" stopTime="0.00" timeLoss="1.37" rerouteNo="0" devices="tripinfo_westEastTop.19 ssm_westEastTop.19" vType="carCustom" speedFactor="1.03" vaporized=""/>
    <tripinfo id="westEastTop.20" depart="108.00" departLane="westJunction_1" departPos="5.10" departSpeed="26.68" departDelay="0.31" arrival="145.00" arrivalLane="junctionEast_1" arrivalPos="492.80" arrivalSpeed="26.60" duration="37.00" routeLength="994.90" waitingTime="0.00" waitingCount="0" stopTime="0.00" timeLoss="0.94" rerouteNo="0" devices="tripinfo_westEastTop.20 ssm_westEastTop.20" vType="carCustom" speedFactor="1.06" vaporized=""/>
    <tripinfo id="westEastBottom0.12" depart="108.00" departLane="westJunction_0" departPos="5.10" departSpeed="26.91" departDelay="0.82" arrival="145.00" arrivalLane="junctionEast_0" arrivalPos="492.80" arrivalSpeed="27.70" duration="37.00" routeLength="994.90" waitingTime="0.00" waitingCount="0" stopTime="0.00" timeLoss="0.76" rerouteNo="0" devices="tripinfo_westEastBottom0.12 ssm_westEastBottom0.12" vType="carCustom" speedFactor="1.01" vaporized=""/>
    <tripinfo id="westEastTop.21" depart="112.00" departLane="westJunction_1" departPos="5.10" departSpeed="27.09" departDelay="0.27" arrival="149.00" arrivalLane="junctionEast_1" arrivalPos="492.80" arrivalSpeed="27.45" duration="37.00" routeLength="994.90" waitingTime="0.00" waitingCount="0" stopTime="0.00" timeLoss="0.84" rerouteNo="0" devices="tripinfo_westEastTop.21 ssm_westEastTop.21" vType="carCustom" speedFactor="1.06" vaporized=""/>
    <tripinfo id="southEast.7" depart="103.00" departLane="southJunction_0" departPos="5.10" departSpeed="7.77" departDelay="0.09" arrival="154.00" arrivalLane="junctionEast_0" arrivalPos="492.80" arrivalSpeed="26.94" duration="51.00" routeLength="989.53" waitingTime="0.00" waitingCount="0" stopTime="0.00" timeLoss="13.97" rerouteNo="0" devices="tripinfo_southEast.7 ssm_southEast.7" vType="carCustom" speedFactor="0.99" vaporized=""/>
    <tripinfo id="southEast.8" depart="111.00" departLane="southJunction_0" departPos="5.10" departSpeed="23.59" departDelay="0.38" arrival="156.00" arrivalLane="junctionEast_0" arrivalPos="492.80" arrivalSpeed="27.77" duration="45.00" routeLength="989.53" waitingTime="0.00" waitingCount="0" stopTime="0.00" timeLoss="8.55" rerouteNo="0" devices="tripinfo_southEast.8 ssm_southEast.8" vType="carCustom" speedFactor="0.88" vaporized=""/>
    <tripinfo id="westEastBottom0.13" depart="120.00" departLane="westJunction_0" departPos="5.10" departSpeed="27.16" departDelay="0.21" arrival="157.00" arrivalLane="junctionEast_1" arrivalPos="492.80" arrivalSpeed="27.59" duration="37.00" routeLength="994.90" waitingTime="0.00" waitingCount="0" stopTime="0.00" timeLoss="1.09" rerouteNo="0" devices="tripinfo_westEastBottom0.13 ssm_westEastBottom0.13" vType="carCustom" speedFactor="1.08" vaporized=""/>
    <tripinfo id="southNorth.12" depart="122.00" departLane="southJunction_1" departPos="5.10" departSpeed="27.78" departDelay="0.73" arrival="163.00" arrivalLane="junctionNorth_0" arrivalPos="492.80" arrivalSpeed="26.92" duration="41.00" routeLength="995.01" waitingTime="0.00" waitingCount="0" stopTime="0.00" timeLoss="4.45" rerouteNo="0" devices="tripinfo_southNorth.12 ssm_southNorth.12" vType="carCustom" speedFactor="1.14" vaporized=""/>
    <tripinfo id="southNorth.13" depart="125.00" departLane="southJunction_1" departPos="5.10" departSpeed="27.03" departDelay="0.78" arrival="165.00" arrivalLane="junctionNorth_0" arrivalPos="492.80" arrivalSpeed="27.17" duration="40.00" routeLength="995.01" waitingTime="0.00" waitingCount="0" stopTime="0.00" timeLoss="3.22" rerouteNo="0" devices="tripinfo_southNorth.13 ssm_southNorth.13" vType="carCustom" speedFactor="0.98" vaporized=""/>
    <tripinfo id="southEast.9" depart="125.00" departLane="southJunction_0" departPos="5.10" departSpeed="27.51" departDelay="0.74" arrival="169.00" arrivalLane="junctionEast_0" arrivalPos="492.80" arrivalSpeed="26.87" duration="44.00" routeLength="989.53" waitingTime="0.00" waitingCount="0" stopTime="0.00" timeLoss="7.63" rerouteNo="0" devices="tripinfo_southEast.9 ssm_southEast.9" vType="carCustom" speedFactor="0.94" vaporized=""/>
    <tripinfo id="westEastTop.22" depart="124.00" departLane="westJunction_1" departPos="5.10" departSpeed="27.51" departDelay="0.17" arrival="172.00" arrivalLane="junctionEast_1" arrivalPos="492.80" arrivalSpeed="26.69" duration="48.00" routeLength="994.90" waitingTime="4.00" waitingCount="1" stopTime="0.00" timeLoss="11.29" rerouteNo="0" devices="tripinfo_westEastTop.22 ssm_westEastTop.22" vType="carCustom" speedFactor="1.12" vaporized=""/>
    <tripinfo id="westEastTop.23" depart="131.00" departLane="westJunction_1" departPos="5.10" departSpeed="27.55" departDelay="0.26" arrival="174.00" arrivalLane="junctionEast_1" arrivalPos="492.80" arrivalSpeed="27.50" duration="43.00" routeLength="994.90" waitingTime="0.00" waitingCount="0" stopTime="0.00" timeLoss="6.23" rerouteNo="0" devices="tripinfo_westEastTop.23 ssm_westEastTop.23" vType="carCustom" speedFactor="0.86" vaporized=""/>
    <tripinfo id="westEastTop.24" depart="133.00" departLane="westJunction_1" departPos="5.10" departSpeed="27.48" departDelay="1.29" arrival="175.00" arrivalLane="junctionEast_1" arrivalPos="492.80" arrivalSpeed="27.58" duration="42.00" routeLength="994.90" waitingTime="0.00" waitingCount="0" stopTime="0.00" timeLoss="5.87" rerouteNo="0" devices="tripinfo_westEastTop.24 ssm_westEastTop.24" vType="carCustom" speedFactor="0.85" vaporized=""/>