<?xml version="1.0" encoding="UTF-8"?>

<!-- generated on 2025-04-29 05:09:05 by Eclipse SUMO sumo Version 1.20.0
<configuration xmlns:xsi="http://www.w3.org/2001/XMLSchema-instance" xsi:noNamespaceSchemaLocation="http://sumo.dlr.de/xsd/sumoConfiguration.xsd">

    <input>
        <net-file value="nets/2lane_unprotected_right/2lane_unprotected_right.net.xml"/>
        <route-files value="nets/2lane_unprotected_right/2lane_unprotected_right.rou.xml"/>
    </input>

    <output>
        <tripinfo-output value="traces/transs50f1_s50_f0.5_random/0046_tripinfo.xml"/>
        <collision-output value="traces/transs50f1_s50_f0.5_random/0046_collisions.xml"/>
        <statistic-output value="traces/transs50f1_s50_f0.5_random/0046_statistics.xml"/>
    </output>

    <processing>
        <collision.action value="teleport"/>
        <collision.check-junctions value="true"/>
        <time-to-teleport value="-1"/>
        <waiting-time-memory value="1000"/>
        <max-depart-delay value="-1"/>
        <default.speeddev value="0.1"/>
    </processing>

    <report>
        <no-warnings value="true"/>
    </report>

    <ssm_device>
        <device.ssm.probability value="1.0"/>
        <device.ssm.measures value="BR"/>
        <device.ssm.file value="/Users/finn/Code/CausalKnowledgeTransfer-4-SafeRL/traces/transs50f1_s50_f0.5_random/0046_ssm.xml"/>
    </ssm_device>

    <traci_server>
        <remote-port value="62982"/>
    </traci_server>

    <random_number>
        <random value="true"/>
    </random_number>

</configuration>
-->

<tripinfos xmlns:xsi="http://www.w3.org/2001/XMLSchema-instance" xsi:noNamespaceSchemaLocation="http://sumo.dlr.de/xsd/tripinfo_file.xsd">
    <tripinfo id="southEast.0" depart="7.00" departLane="southJunction_0" departPos="5.10" departSpeed="22.22" departDelay="0.65" arrival="37.00" arrivalLane="junctionEast_0" arrivalPos="492.80" arrivalSpeed="7.47" duration="30.00" routeLength="989.53" waitingTime="0.00" waitingCount="0" stopTime="0.00" timeLoss="6.81" rerouteNo="0" devices="tripinfo_southEast.0 ssm_southEast.0" vType="carCustom" speedFactor="1.25" vaporized="teleport"/>
    <tripinfo id="westEastBottom0.0" depart="2.00" departLane="westJunction_0" departPos="5.10" departSpeed="22.22" departDelay="0.62" arrival="50.00" arrivalLane="junctionEast_0" arrivalPos="492.80" arrivalSpeed="21.82" duration="48.00" routeLength="994.90" waitingTime="0.00" waitingCount="0" stopTime="0.00" timeLoss="2.63" rerouteNo="0" devices="tripinfo_westEastBottom0.0 ssm_westEastBottom0.0" vType="carCustom" speedFactor="1.17" vaporized=""/>
    <tripinfo id="westEastBottom0.2" depart="10.00" departLane="westJunction_0" departPos="5.10" departSpeed="14.95" departDelay="0.34" arrival="58.00" arrivalLane="junctionEast_1" arrivalPos="492.80" arrivalSpeed="22.03" duration="48.00" routeLength="994.90" waitingTime="0.00" waitingCount="0" stopTime="0.00" timeLoss="2.43" rerouteNo="0" devices="tripinfo_westEastBottom0.2 ssm_westEastBottom0.2" vType="carCustom" speedFactor="1.12" vaporized=""/>
    <tripinfo id="westEastBottom0.1" depart="5.00" departLane="westJunction_0" departPos="5.10" departSpeed="22.15" departDelay="0.87" arrival="62.00" arrivalLane="junctionEast_0" arrivalPos="492.80" arrivalSpeed="21.83" duration="57.00" routeLength="994.90" waitingTime="0.00" waitingCount="0" stopTime="0.00" timeLoss="11.30" rerouteNo="0" devices="tripinfo_westEastBottom0.1 ssm_westEastBottom0.1" vType="carCustom" speedFactor="0.99" vaporized=""/>
    <tripinfo id="westEastTop.0" depart="15.00" departLane="westJunction_1" departPos="5.10" departSpeed="21.09" departDelay="0.06" arrival="70.00" arrivalLane="junctionEast_1" arrivalPos="492.80" arrivalSpeed="22.08" duration="55.00" routeLength="994.90" waitingTime="0.00" waitingCount="0" stopTime="0.00" timeLoss="9.66" rerouteNo="0" devices="tripinfo_westEastTop.0 ssm_westEastTop.0" vType="carCustom" speedFactor="1.08" vaporized=""/>
    <tripinfo id="westEastBottom0.3" depart="15.00" departLane="westJunction_0" departPos="5.10" departSpeed="14.19" departDelay="0.58" arrival="73.00" arrivalLane="junctionEast_0" arrivalPos="492.80" arrivalSpeed="20.98" duration="58.00" routeLength="994.90" waitingTime="0.00" waitingCount="0" stopTime="0.00" timeLoss="12.74" rerouteNo="0" devices="tripinfo_westEastBottom0.3 ssm_westEastBottom0.3" vType="carCustom" speedFactor="1.00" vaporized=""/>
    <tripinfo id="westEastTop.1" depart="17.00" departLane="westJunction_1" departPos="5.10" departSpeed="18.15" departDelay="1.79" arrival="81.00" arrivalLane="junctionEast_1" arrivalPos="492.80" arrivalSpeed="21.96" duration="64.00" routeLength="994.90" waitingTime="0.00" waitingCount="0" stopTime="0.00" timeLoss="18.53" rerouteNo="0" devices="tripinfo_westEastTop.1 ssm_westEastTop.1" vType="carCustom" speedFactor="0.88" vaporized=""/>
    <tripinfo id="southEast.1" depart="14.00" departLane="southJunction_0" departPos="5.10" departSpeed="21.47" departDelay="0.14" arrival="82.00" arrivalLane="junctionEast_0" arrivalPos="492.80" arrivalSpeed="22.10" duration="68.00" routeLength="989.53" waitingTime="0.00" waitingCount="0" stopTime="0.00" timeLoss="22.31" rerouteNo="0" devices="tripinfo_southEast.1 ssm_southEast.1" vType="carCustom" speedFactor="1.07" vaporized=""/>
    <tripinfo id="westEastBottom0.4" depart="17.00" departLane="westJunction_0" departPos="5.10" departSpeed="14.44" departDelay="0.85" arrival="90.00" arrivalLane="junctionEast_1" arrivalPos="492.80" arrivalSpeed="21.21" duration="73.00" routeLength="994.90" waitingTime="0.00" waitingCount="0" stopTime="0.00" timeLoss="28.01" rerouteNo="0" devices="tripinfo_westEastBottom0.4 ssm_westEastBottom0.4" vType="carCustom" speedFactor="1.11" vaporized=""/>
    <tripinfo id="southEast.2" depart="18.00" departLane="southJunction_0" departPos="5.10" departSpeed="16.81" departDelay="0.42" arrival="91.00" arrivalLane="junctionEast_0" arrivalPos="492.80" arrivalSpeed="21.00" duration="73.00" routeLength="989.53" waitingTime="0.00" waitingCount="0" stopTime="0.00" timeLoss="27.60" rerouteNo="0" devices="tripinfo_southEast.2 ssm_southEast.2" vType="carCustom" speedFactor="0.99" vaporized=""/>
    <tripinfo id="southNorth.0" depart="8.00" departLane="southJunction_1" departPos="5.10" departSpeed="22.22" departDelay="0.20" arrival="94.00" arrivalLane="junctionNorth_0" arrivalPos="492.80" arrivalSpeed="21.58" duration="86.00" routeLength="995.01" waitingTime="27.00" waitingCount="1" stopTime="0.00" timeLoss="40.56" rerouteNo="0" devices="tripinfo_southNorth.0 ssm_southNorth.0" vType="carCustom" speedFactor="1.08" vaporized=""/>
    <tripinfo id="westEastTop.2" depart="19.00" departLane="westJunction_1" departPos="5.10" departSpeed="15.21" departDelay="0.25" arrival="101.00" arrivalLane="junctionEast_1" arrivalPos="492.80" arrivalSpeed="21.43" duration="82.00" routeLength="994.90" waitingTime="0.00" waitingCount="0" stopTime="0.00" timeLoss="36.45" rerouteNo="0" devices="tripinfo_westEastTop.2 ssm_westEastTop.2" vType="carCustom" speedFactor="1.10" vaporized=""/>
    <tripinfo id="southEast.3" depart="34.00" departLane="southJunction_0" departPos="5.10" departSpeed="12.99" departDelay="0.47" arrival="102.00" arrivalLane="junctionEast_0" arrivalPos="492.80" arrivalSpeed="21.65" duration="68.00" routeLength="989.53" waitingTime="0.00" waitingCount="0" stopTime="0.00" timeLoss="21.98" rerouteNo="0" devices="tripinfo_southEast.3 ssm_southEast.3" vType="carCustom" speedFactor="1.11" vaporized=""/>
    <tripinfo id="southEast.6" depart="64.00" departLane="southJunction_0" departPos="5.10" departSpeed="12.84" departDelay="0.93" arrival="107.00" arrivalLane="junctionEast_0" arrivalPos="492.80" arrivalSpeed="5.09" duration="43.00" routeLength="989.53" waitingTime="0.00" waitingCount="0" stopTime="0.00" timeLoss="19.17" rerouteNo="0" devices="tripinfo_southEast.6 ssm_southEast.6" vType="carCustom" speedFactor="1.10" vaporized="teleport"/>
    <tripinfo id="westEastTop.3" depart="21.00" departLane="westJunction_1" departPos="5.10" departSpeed="12.27" departDelay="0.34" arrival="110.00" arrivalLane="junctionEast_1" arrivalPos="492.80" arrivalSpeed="21.68" duration="89.00" routeLength="994.90" waitingTime="0.00" waitingCount="0" stopTime="0.00" timeLoss="43.83" rerouteNo="0" devices="tripinfo_westEastTop.3 ssm_westEastTop.3" vType="carCustom" speedFactor="0.92" vaporized=""/>
    <tripinfo id="westEastBottom0.5" depart="52.00" departLane="westJunction_0" departPos="5.10" departSpeed="22.22" departDelay="0.63" arrival="112.00" arrivalLane="junctionEast_0" arrivalPos="492.80" arrivalSpeed="21.76" duration="60.00" routeLength="994.90" waitingTime="0.00" waitingCount="0" stopTime="0.00" timeLoss="14.26" rerouteNo="0" devices="tripinfo_westEastBottom0.5 ssm_westEastBottom0.5" vType="carCustom" speedFactor="0.95" vaporized=""/>
    <tripinfo id="westEastTop.4" depart="23.00" departLane="westJunction_1" departPos="5.10" departSpeed="9.33" departDelay="1.07" arrival="119.00" arrivalLane="junctionEast_1" arrivalPos="492.80" arrivalSpeed="21.71" duration="96.00" routeLength="994.90" waitingTime="0.00" waitingCount="0" stopTime="0.00" timeLoss="50.64" rerouteNo="0" devices="tripinfo_westEastTop.4 ssm_westEastTop.4" vType="carCustom" speedFactor="1.15" vaporized=""/>
    <tripinfo id="southEast.4" depart="41.00" departLane="southJunction_0" departPos="5.10" departSpeed="15.51" departDelay="0.40" arrival="120.00" arrivalLane="junctionEast_0" arrivalPos="492.80" arrivalSpeed="21.31" duration="79.00" routeLength="989.53" waitingTime="0.00" waitingCount="0" stopTime="0.00" timeLoss="33.34" rerouteNo="0" devices="tripinfo_southEast.4 ssm_southEast.4" vType="carCustom" speedFactor="0.88" vaporized=""/>
    <tripinfo id="southNorth.1" depart="10.00" departLane="southJunction_1" departPos="5.10" departSpeed="21.62" departDelay="0.10" arrival="127.00" arrivalLane="junctionNorth_0" arrivalPos="492.80" arrivalSpeed="21.84" duration="117.00" routeLength="995.01" waitingTime="39.00" waitingCount="2" stopTime="0.00" timeLoss="71.35" rerouteNo="0" devices="tripinfo_southNorth.1 ssm_southNorth.1" vType="carCustom" speedFactor="1.10" vaporized=""/>
    <tripinfo id="westEastTop.5" depart="28.00" departLane="westJunction_1" departPos="5.10" departSpeed="3.74" departDelay="0.05" arrival="128.00" arrivalLane="junctionEast_1" arrivalPos="492.80" arrivalSpeed="21.13" duration="100.00" routeLength="994.90" waitingTime="0.00" waitingCount="0" stopTime="0.00" timeLoss="54.34" rerouteNo="0" devices="tripinfo_westEastTop.5 ssm_westEastTop.5" vType="carCustom" speedFactor="1.02" vaporized=""/>
    <tripinfo id="westEastBottom0.6" depart="56.00" departLane="westJunction_0" departPos="5.10" departSpeed="19.66" departDelay="0.80" arrival="128.00" arrivalLane="junctionEast_0" arrivalPos="492.80" arrivalSpeed="21.39" duration="72.00" routeLength="994.90" waitingTime="0.00" waitingCount="0" stopTime="0.00" timeLoss="27.16" rerouteNo="0" devices="tripinfo_westEastBottom0.6 ssm_westEastBottom0.6" vType="carCustom" speedFactor="1.21" vaporized=""/>
    <tripinfo id="westEastTop.6" depart="36.00" departLane="westJunction_1" departPos="5.10" departSpeed="4.57" departDelay="0.50" arrival="136.00" arrivalLane="junctionEast_1" arrivalPos="492.80" arrivalSpeed="21.84" duration="100.00" routeLength="994.90" waitingTime="0.00" waitingCount="0" stopTime="0.00" timeLoss="55.20" rerouteNo="0" devices="tripinfo_westEastTop.6 ssm_westEastTop.6" vType="carCustom" speedFactor="0.79" vaporized=""/>
    <tripinfo id="southEast.5" depart="52.00" departLane="southJunction_0" departPos="5.10" departSpeed="13.27" departDelay="0.82" arrival="136.00" arrivalLane="junctionEast_0" arrivalPos="492.80" arrivalSpeed="22.19" duration="84.00" routeLength="989.53" waitingTime="0.00" waitingCount="0" stopTime="0.00" timeLoss="38.05" rerouteNo="0" devices="tripinfo_southEast.5 ssm_southEast.5" vType="carCustom" speedFactor="0.89" vaporized=""/>
    <tripinfo id="westEastBottom0.10" depart="83.00" departLane="westJunction_0" departPos="5.10" departSpeed="12.37" departDelay="2.73" arrival="138.00" arrivalLane="junctionEast_0" arrivalPos="492.80" arrivalSpeed="7.85" duration="55.00" routeLength="994.90" waitingTime="0.00" waitingCount="0" stopTime="0.00" timeLoss="32.31" rerouteNo="0" devices="tripinfo_westEastBottom0.10 ssm_westEastBottom0.10" vType="carCustom" speedFactor="1.07" vaporized="teleport"/>
    <tripinfo id="southNorth.2" depart="14.00" departLane="southJunction_1" departPos="5.10" departSpeed="15.75" departDelay="0.90" arrival="142.00" arrivalLane="junctionNorth_0" arrivalPos="492.80" arrivalSpeed="21.70" duration="128.00" routeLength="995.01" waitingTime="36.00" waitingCount="3" stopTime="0.00" timeLoss="83.13" rerouteNo="0" devices="tripinfo_southNorth.2 ssm_southNorth.2" vType="carCustom" speedFactor="0.93" vaporized=""/>
    <tripinfo id="westEastBottom0.7" depart="65.00" departLane="westJunction_0" departPos="5.10" departSpeed="12.88" departDelay="0.15" arrival="144.00" arrivalLane="junctionEast_0" arrivalPos="492.80" arrivalSpeed="21.33" duration="79.00" routeLength="994.90" waitingTime="0.00" waitingCount="0" stopTime="0.00" timeLoss="34.04" rerouteNo="0" devices="tripinfo_westEastBottom0.7 ssm_westEastBottom0.7" vType="carCustom" speedFactor="1.09" vaporized=""/>
    <tripinfo id="westEastTop.7" depart="39.00" departLane="westJunction_1" departPos="5.10" departSpeed="5.99" departDelay="2.16" arrival="145.00" arrivalLane="junctionEast_1" arrivalPos="492.80" arrivalSpeed="21.59" duration="106.00" routeLength="994.90" waitingTime="0.00" waitingCount="0" stopTime="0.00" timeLoss="60.60" rerouteNo="0" devices="tripinfo_westEastTop.7 ssm_westEastTop.7" vType="carCustom" speedFactor="1.03" vaporized=""/>
    <tripinfo id="southEast.7" depart="66.00" departLane="southJunction_0" departPos="5.10" departSpeed="14.08" departDelay="1.72" arrival="152.00" arrivalLane="junctionEast_0" arrivalPos="492.80" arrivalSpeed="20.98" duration="86.00" routeLength="989.53" waitingTime="0.00" waitingCount="0" stopTime="0.00" timeLoss="39.99" rerouteNo="0" devices="tripinfo_southEast.7 ssm_southEast.7" vType="carCustom" speedFactor="1.15" vaporized=""/>
    <tripinfo id="southNorth.3" depart="30.00" departLane="southJunction_1" departPos="5.10" departSpeed="12.53" departDelay="0.83" arrival="154.00" arrivalLane="junctionNorth_0" arrivalPos="492.80" arrivalSpeed="21.17" duration="124.00" routeLength="995.01" waitingTime="32.00" waitingCount="3" stopTime="0.00" timeLoss="78.32" rerouteNo="0" devices="tripinfo_southNorth.3 ssm_southNorth.3" vType="carCustom" speedFactor="1.08" vaporized=""/>
    <tripinfo id="westEastTop.8" depart="42.00" departLane="westJunction_1" departPos="5.10" departSpeed="3.37" departDelay="0.23" arrival="154.00" arrivalLane="junctionEast_1" arrivalPos="492.80" arrivalSpeed="21.24" duration="112.00" routeLength="994.90" waitingTime="0.00" waitingCount="0" stopTime="0.00" timeLoss="66.43" rerouteNo="0" devices="tripinfo_westEastTop.8 ssm_westEastTop.8" vType="carCustom" speedFactor="1.04" vaporized=""/>
    <tripinfo id="westEastBottom0.8" depart="67.00" departLane="westJunction_0" departPos="5.10" departSpeed="12.52" departDelay="1.66" arrival="160.00" arrivalLane="junctionEast_0" arrivalPos="492.80" arrivalSpeed="21.95" duration="93.00" routeLength="994.90" waitingTime="5.00" waitingCount="1" stopTime="0.00" timeLoss="47.62" rerouteNo="0" devices="tripinfo_westEastBottom0.8 ssm_westEastBottom0.8" vType="carCustom" speedFactor="0.81" vaporized=""/>
    <tripinfo id="southEast.8" depart="88.00" departLane="southJunction_0" departPos="5.10" departSpeed="11.43" departDelay="0.19" arrival="162.00" arrivalLane="junctionEast_1" arrivalPos="492.80" arrivalSpeed="22.12" duration="74.00" routeLength="989.53" waitingTime="0.00" waitingCount="0" stopTime="0.00" timeLoss="27.60" rerouteNo="0" devices="tripinfo_southEast.8 ssm_southEast.8" vType="carCustom" speedFactor="0.76" vaporized=""/>
    <tripinfo id="southNorth.4" depart="32.00" departLane="southJunction_1" departPos="5.10" departSpeed="16.19" departDelay="0.94" arrival="167.00" arrivalLane="junctionNorth_0" arrivalPos="492.80" arrivalSpeed="21.15" duration="135.00" routeLength="995.01" waitingTime="29.00" waitingCount="3" stopTime="0.00" timeLoss="90.21" rerouteNo="0" devices="tripinfo_southNorth.4 ssm_southNorth.4" vType="carCustom" speedFactor="0.90" vaporized=""/>
    <tripinfo id="westEastBottom0.9" depart="81.00" departLane="westJunction_0" departPos="5.10" departSpeed="10.32" departDelay="0.97" arrival="168.00" arrivalLane="junctionEast_0" arrivalPos="492.80" arrivalSpeed="21.04" duration="87.00" routeLength="994.90" waitingTime="0.00" waitingCount="0" stopTime="0.00" timeLoss="41.76" rerouteNo="0" devices="tripinfo_westEastBottom0.9 ssm_westEastBottom0.9" vType="carCustom" speedFactor="1.14" vaporized=""/>
    <tripinfo id="westEastTop.9" depart="47.00" departLane="westJunction_1" departPos="5.10" departSpeed="2.28" departDelay="4.55" arrival="170.00" arrivalLane="junctionEast_1" arrivalPos="492.80" arrivalSpeed="21.27" duration="123.00" routeLength="994.90" waitingTime="0.00" waitingCount="0" stopTime="0.00" timeLoss="77.82" rerouteNo="0" devices="tripinfo_westEastTop.9 ssm_westEastTop.9" vType="carCustom" speedFactor="1.10" vaporized=""/>
    <tripinfo id="southEast.9" depart="94.00" departLane="southJunction_0" departPos="5.10" departSpeed="15.96" departDelay="0.19" arrival="176.00" arrivalLane="junctionEast_0" arrivalPos="492.80" arrivalSpeed="21.92" duration="82.00" routeLength="989.53" waitingTime="0.00" waitingCount="0" stopTime="0.00" timeLoss="35.78" rerouteNo="0" devices="tripinfo_southEast.9 ssm_southEast.9" vType="carCustom" speedFactor="1.15" vaporized=""/>
    <tripinfo id="southNorth.5" depart="45.00" departLane="southJunction_1" departPos="5.10" departSpeed="10.15" departDelay="0.65" arrival="178.00" arrivalLane="junctionNorth_0" arrivalPos="492.80" arrivalSpeed="20.96" duration="133.00" routeLength="995.01" waitingTime="21.00" waitingCount="4" stopTime="0.00" timeLoss="88.05" rerouteNo="0" devices="tripinfo_southNorth.5 ssm_southNorth.5" vType="carCustom" speedFactor="0.93" vaporized=""/>
    <tripinfo id="westEastTop.10" depart="52.00" departLane="westJunction_1" departPos="5.10" departSpeed="2.40" departDelay="5.97" arrival="178.00" arrivalLane="junctionEast_1" arrivalPos="492.80" arrivalSpeed="21.58" duration="126.00" routeLength="994.90" waitingTime="0.00" waitingCount="0" stopTime="0.00" timeLoss="80.72" rerouteNo="0" devices="tripinfo_westEastTop.10 ssm_westEastTop.10" vType="carCustom" speedFactor="0.91" vaporized=""/>
    <tripinfo id="westEastBottom0.11" depart="104.00" departLane="westJunction_0" departPos="5.10" departSpeed="10.55" departDelay="0.80" arrival="184.00" arrivalLane="junctionEast_0" arrivalPos="492.80" arrivalSpeed="21.24" duration="80.00" routeLength="994.90" waitingTime="0.00" waitingCount="0" stopTime="0.00" timeLoss="34.42" rerouteNo="0" devices="tripinfo_westEastBottom0.11 ssm_westEastBottom0.11" vType="carCustom" speedFactor="0.93" vaporized=""/>
    <tripinfo id="westEastTop.11" depart="57.00" departLane="westJunction_1" departPos="5.10" departSpeed="2.77" departDelay="9.81" arrival="186.00" arrivalLane="junctionEast_1" arrivalPos="492.80" arrivalSpeed="22.00" duration="129.00" routeLength="994.90" waitingTime="0.00" waitingCount="0" stopTime="0.00" timeLoss="83.42" rerouteNo="0" devices="tripinfo_westEastTop.11 ssm_westEastTop.11" vType="carCustom" speedFactor="0.94" vaporized=""/>
    <tripinfo id="southNorth.6" depart="68.00" departLane="southJunction_1" departPos="5.10" departSpeed="10.93" departDelay="0.30" arrival="189.00" arrivalLane="junctionNorth_0" arrivalPos="492.80" arrivalSpeed="21.79" duration="121.00" routeLength="995.01" waitingTime="14.00" waitingCount="4" stopTime="0.00" timeLoss="75.99" rerouteNo="0" devices="tripinfo_southNorth.6 ssm_southNorth.6" vType="carCustom" speedFactor="0.94" vaporized=""/>
    <tripinfo id="southEast.10" depart="111.00" departLane="southJunction_0" departPos="5.10" departSpeed="12.39" departDelay="0.85" arrival="191.00" arrivalLane="junctionEast_0" arrivalPos="492.80" arrivalSpeed="22.21" duration="80.00" routeLength="989.53" waitingTime="0.00" waitingCount="0" stopTime="0.00" timeLoss="34.79" rerouteNo="0" devices="tripinfo_southEast.10 ssm_southEast.10" vType="carCustom" speedFactor="1.13" vaporized=""/>
    <tripinfo id="westEastTop.12" depart="62.00" departLane="westJunction_1" departPos="5.10" departSpeed="1.81" departDelay="13.56" arrival="194.00" arrivalLane="junctionEast_1" arrivalPos="492.80" arrivalSpeed="21.42" duration="132.00" routeLength="994.90" waitingTime="1.00" waitingCount="1" stopTime="0.00" timeLoss="86.40" rerouteNo="0" devices="tripinfo_westEastTop.12 ssm_westEastTop.12" vType="carCustom" speedFactor="1.10" vaporized=""/>
    <tripinfo id="westEastBottom0.12" depart="113.00" departLane="westJunction_0" departPos="5.10" departSpeed="14.31" departDelay="0.66" arrival="199.00" arrivalLane="junctionEast_0" arrivalPos="492.80" arrivalSpeed="21.74" duration="86.00" routeLength="994.90" waitingTime="0.00" waitingCount="0" stopTime="0.00" timeLoss="40.56" rerouteNo="0" devices="tripinfo_westEastBottom0.12 ssm_westEastBottom0.12" vType="carCustom" speedFactor="0.93" vaporized=""/>
    <tripinfo id="westEastTop.13" depart="68.00" departLane="westJunction_1" departPos="5.10" departSpeed="2.25" departDelay="17.81" arrival="202.00" arrivalLane="junctionEast_1" arrivalPos="492.80" arrivalSpeed="21.81" duration="134.00" routeLength="994.90" waitingTime="2.00" waitingCount="1" stopTime="0.00" timeLoss="88.43" rerouteNo="0" devices="tripinfo_westEastTop.13 ssm_westEastTop.13" vType="carCustom" speedFactor="0.91" vaporized=""/>
    <tripinfo id="southNorth.7" depart="80.00" departLane="southJunction_1" departPos="5.10" departSpeed="16.03" departDelay="0.45" arrival="203.00" arrivalLane="junctionNorth_0" arrivalPos="492.80" arrivalSpeed="22.20" duration="123.00" routeLength="995.01" waitingTime="14.00" waitingCount="3" stopTime="0.00" timeLoss="77.95" rerouteNo="0" devices="tripinfo_southNorth.7 ssm_southNorth.7" vType="carCustom" speedFactor="1.11" vaporized=""/>
    <tripinfo id="westEastBottom0.13" depart="135.00" departLane="westJunction_0" departPos="5.10" departSpeed="12.62" departDelay="0.24" arrival="206.00" arrivalLane="junctionEast_0" arrivalPos="492.80" arrivalSpeed="22.22" duration="71.00" routeLength="994.90" waitingTime="0.00" waitingCount="0" stopTime="0.00" timeLoss="26.09" rerouteNo="0" devices="tripinfo_westEastBottom0.13 ssm_westEastBottom0.13" vType="carCustom" speedFactor="0.99" vaporized=""/>
    <tripinfo id="southEast.14" depart="154.00" departLane="southJunction_0" departPos="5.10" departSpeed="9.88" departDelay="0.16" arrival="206.00" arrivalLane="junctionEast_0" arrivalPos="492.80" arrivalSpeed="4.71" duration="52.00" routeLength="989.53" waitingTime="0.00" waitingCount="0" stopTime="0.00" timeLoss="28.07" rerouteNo="0" devices="tripinfo_southEast.14 ssm_southEast.14" vType="carCustom" speedFactor="0.99" vaporized="teleport"/>
    <tripinfo id="westEastTop.14" depart="74.00" departLane="westJunction_1" departPos="5.10" departSpeed="2.41" departDelay="14.12" arrival="210.00" arrivalLane="junctionEast_1" arrivalPos="492.80" arrivalSpeed="21.70" duration="136.00" routeLength="994.90" waitingTime="0.00" waitingCount="0" stopTime="0.00" timeLoss="90.44" rerouteNo="0" devices="tripinfo_westEastTop.14 ssm_westEastTop.14" vType="carCustom" speedFactor="0.88" vaporized=""/>
    <tripinfo id="southEast.11" depart="138.00" departLane="southJunction_0" departPos="5.10" departSpeed="11.29" departDelay="0.77" arrival="214.00" arrivalLane="junctionEast_0" arrivalPos="492.80" arrivalSpeed="21.42" duration="76.00" routeLength="989.53" waitingTime="0.00" waitingCount="0" stopTime="0.00" timeLoss="30.11" rerouteNo="0" devices="tripinfo_southEast.11 ssm_southEast.11" vType="carCustom" speedFactor="0.83" vaporized=""/>
    <tripinfo id="westEastTop.15" depart="79.00" departLane="westJunction_1" departPos="5.10" departSpeed="2.91" departDelay="16.57" arrival="217.00" arrivalLane="junctionEast_1" arrivalPos="492.80" arrivalSpeed="21.90" duration="138.00" routeLength="994.90" waitingTime="0.00" waitingCount="0" stopTime="0.00" timeLoss="93.21" rerouteNo="0" devices="tripinfo_westEastTop.15 ssm_westEastTop.15" vType="carCustom" speedFactor="0.90" vaporized=""/>
    <tripinfo id="westEastBottom0.14" depart="142.00" departLane="westJunction_0" departPos="5.10" departSpeed="18.72" departDelay="0.51" arrival="221.00" arrivalLane="junctionEast_0" arrivalPos="492.80" arrivalSpeed="21.53" duration="79.00" routeLength="994.90" waitingTime="0.00" waitingCount="0" stopTime="0.00" timeLoss="33.98" rerouteNo="0" devices="tripinfo_westEastBottom0.14 ssm_westEastBottom0.14" vType="carCustom" speedFactor="0.99" vaporized=""/>
    <tripinfo id="westEastTop.16" depart="84.00" departLane="westJunction_1" departPos="5.10" departSpeed="2.66" departDelay="20.95" arrival="225.00" arrivalLane="junctionEast_1" arrivalPos="492.80" arrivalSpeed="21.94" duration="141.00" routeLength="994.90" waitingTime="0.00" waitingCount="0" stopTime="0.00" timeLoss="95.47" rerouteNo="0" devices="tripinfo_westEastTop.16 ssm_westEastTop.16" vType="carCustom" speedFactor="0.97" vaporized=""/>
    <tripinfo id="southEast.12" depart="144.00" departLane="southJunction_0" departPos="5.10" departSpeed="21.04" departDelay="0.54" arrival="229.00" arrivalLane="junctionEast_0" arrivalPos="492.80" arrivalSpeed="21.38" duration="85.00" routeLength="989.53" waitingTime="0.00" waitingCount="0" stopTime="0.00" timeLoss="38.72" rerouteNo="0" devices="tripinfo_southEast.12 ssm_southEast.12" vType="carCustom" speedFactor="1.02" vaporized=""/>
    <tripinfo id="westEastTop.17" depart="90.00" departLane="westJunction_1" departPos="5.10" departSpeed="3.06" departDelay="21.77" arrival="232.00" arrivalLane="junctionEast_1" arrivalPos="492.80" arrivalSpeed="21.63" duration="142.00" routeLength="994.90" waitingTime="0.00" waitingCount="0" stopTime="0.00" timeLoss="96.91" rerouteNo="0" devices="tripinfo_westEastTop.17 ssm_westEastTop.17" vType="carCustom" speedFactor="0.87" vaporized=""/>
    <tripinfo id="westEastBottom0.15" depart="154.00" departLane="westJunction_0" departPos="5.10" departSpeed="13.57" departDelay="0.38" arrival="236.00" arrivalLane="junctionEast_0" arrivalPos="492.80" arrivalSpeed="21.73" duration="82.00" routeLength="994.90" waitingTime="0.00" waitingCount="0" stopTime="0.00" timeLoss="36.96" rerouteNo="0" devices="tripinfo_westEastBottom0.15 ssm_westEastBottom0.15" vType="carCustom" speedFactor="0.89" vaporized=""/>
    <tripinfo id="westEastTop.18" depart="95.00" departLane="westJunction_1" departPos="5.10" departSpeed="2.42" departDelay="25.23" arrival="239.00" arrivalLane="junctionEast_1" arrivalPos="492.80" arrivalSpeed="22.21" duration="144.00" routeLength="994.90" waitingTime="0.00" waitingCount="0" stopTime="0.00" timeLoss="99.06" rerouteNo="0" devices="tripinfo_westEastTop.18 ssm_westEastTop.18" vType="carCustom" speedFactor="1.09" vaporized=""/>
    <tripinfo id="southEast.13" depart="147.00" departLane="southJunction_0" departPos="5.10" departSpeed="16.82" departDelay="0.41" arrival="243.00" arrivalLane="junctionEast_0" arrivalPos="492.80" arrivalSpeed="21.61" duration="96.00" routeLength="989.53" waitingTime="0.00" waitingCount="0" stopTime="0.00" timeLoss="50.55" rerouteNo="0" devices="tripinfo_southEast.13 ssm_southEast.13" vType="carCustom" speedFactor="1.02" vaporized=""/>
    <tripinfo id="westEastTop.19" depart="101.00" departLane="westJunction_1" departPos="5.10" departSpeed="3.02" departDelay="29.38" arrival="247.00" arrivalLane="junctionEast_1" arrivalPos="492.80" arrivalSpeed="20.96" duration="146.00" routeLength="994.90" waitingTime="0.00" waitingCount="0" stopTime="0.00" timeLoss="100.51" rerouteNo="0" devices="tripinfo_westEastTop.19 ssm_westEastTop.19" vType="carCustom" speedFactor="1.02" vaporized=""/>
    <tripinfo id="westEastBottom0.16" depart="156.00" departLane="westJunction_0" departPos="5.10" departSpeed="15.58" departDelay="0.71" arrival="250.00" arrivalLane="junctionEast_0" arrivalPos="492.80" arrivalSpeed="21.32" duration="94.00" routeLength="994.90" waitingTime="0.00" waitingCount="0" stopTime="0.00" timeLoss="49.22" rerouteNo="0" devices="tripinfo_westEastBottom0.16 ssm_westEastBottom0.16" vType="carCustom" speedFactor="1.00" vaporized=""/>
    <tripinfo id="westEastTop.20" depart="106.00" departLane="westJunction_1" departPos="5.10" departSpeed="2.23" departDelay="28.97" arrival="254.00" arrivalLane="junctionEast_1" arrivalPos="492.80" arrivalSpeed="21.35" duration="148.00" routeLength="994.90" waitingTime="0.00" waitingCount="0" stopTime="0.00" timeLoss="102.86" rerouteNo="0" devices="tripinfo_westEastTop.20 ssm_westEastTop.20" vType="carCustom" speedFactor="0.92" vaporized=""/>
    <tripinfo id="westEastBottom0.17" depart="163.00" departLane="westJunction_0" departPos="5.10" departSpeed="8.72" departDelay="0.66" arrival="258.00" arrivalLane="junctionEast_0" arrivalPos="492.80" arrivalSpeed="22.03" duration="95.00" routeLength="994.90" waitingTime="0.00" waitingCount="0" stopTime="0.00" timeLoss="49.25" rerouteNo="0" devices="tripinfo_westEastBottom0.17 ssm_westEastBottom0.17" vType="carCustom" speedFactor="1.09" vaporized=""/>
    <tripinfo id="westEastTop.21" depart="112.00" departLane="westJunction_1" departPos="5.10" departSpeed="2.92" departDelay="31.54" arrival="261.00" arrivalLane="junctionEast_1" arrivalPos="492.80" arrivalSpeed="21.49" duration="149.00" routeLength="994.90" waitingTime="0.00" waitingCount="0" stopTime="0.00" timeLoss="103.85" rerouteNo="0" devices="tripinfo_westEastTop.21 ssm_westEastTop.21" vType="carCustom" speedFactor="0.92" vaporized=""/>