<?xml version="1.0" encoding="UTF-8"?>

<!-- generated on 2025-04-29 05:23:17 by Eclipse SUMO sumo Version 1.20.0
<configuration xmlns:xsi="http://www.w3.org/2001/XMLSchema-instance" xsi:noNamespaceSchemaLocation="http://sumo.dlr.de/xsd/sumoConfiguration.xsd">

    <input>
        <net-file value="nets/2lane_unprotected_right/2lane_unprotected_right.net.xml"/>
        <route-files value="nets/2lane_unprotected_right/2lane_unprotected_right.rou.xml"/>
    </input>

    <output>
        <tripinfo-output value="traces/transs50f1_s50_f0.5_random/0060_tripinfo.xml"/>
        <collision-output value="traces/transs50f1_s50_f0.5_random/0060_collisions.xml"/>
        <statistic-output value="traces/transs50f1_s50_f0.5_random/0060_statistics.xml"/>
    </output>

    <processing>
        <collision.action value="teleport"/>
        <collision.check-junctions value="true"/>
        <time-to-teleport value="-1"/>
        <waiting-time-memory value="1000"/>
        <max-depart-delay value="-1"/>
        <default.speeddev value="0.1"/>
    </processing>

    <report>
        <no-warnings value="true"/>
    </report>

    <ssm_device>
        <device.ssm.probability value="1.0"/>
        <device.ssm.measures value="BR"/>
        <device.ssm.file value="/Users/finn/Code/CausalKnowledgeTransfer-4-SafeRL/traces/transs50f1_s50_f0.5_random/0060_ssm.xml"/>
    </ssm_device>

    <traci_server>
        <remote-port value="63155"/>
    </traci_server>

    <random_number>
        <random value="true"/>
    </random_number>

</configuration>
-->

<tripinfos xmlns:xsi="http://www.w3.org/2001/XMLSchema-instance" xsi:noNamespaceSchemaLocation="http://sumo.dlr.de/xsd/tripinfo_file.xsd">
    <tripinfo id="southEast.4" depart="60.00" departLane="southJunction_0" departPos="5.10" departSpeed="7.40" departDelay="0.55" arrival="131.00" arrivalLane="junctionEast_0" arrivalPos="492.80" arrivalSpeed="3.84" duration="71.00" routeLength="989.53" waitingTime="1.00" waitingCount="1" stopTime="0.00" timeLoss="10.75" rerouteNo="0" devices="tripinfo_southEast.4 ssm_southEast.4" vType="carCustom" speedFactor="0.79" vaporized="teleport"/>
    <tripinfo id="westEastTop.0" depart="2.00" departLane="westJunction_1" departPos="5.10" departSpeed="8.33" departDelay="0.27" arrival="132.00" arrivalLane="junctionEast_0" arrivalPos="492.80" arrivalSpeed="7.58" duration="130.00" routeLength="994.90" waitingTime="0.00" waitingCount="0" stopTime="0.00" timeLoss="10.30" rerouteNo="0" devices="tripinfo_westEastTop.0 ssm_westEastTop.0" vType="carCustom" speedFactor="0.78" vaporized=""/>
    <tripinfo id="westEastTop.1" depart="5.00" departLane="westJunction_1" departPos="5.10" departSpeed="7.41" departDelay="0.67" arrival="138.00" arrivalLane="junctionEast_0" arrivalPos="492.80" arrivalSpeed="7.95" duration="133.00" routeLength="994.90" waitingTime="0.00" waitingCount="0" stopTime="0.00" timeLoss="13.42" rerouteNo="0" devices="tripinfo_westEastTop.1 ssm_westEastTop.1" vType="carCustom" speedFactor="1.06" vaporized=""/>
    <tripinfo id="southEast.0" depart="10.00" departLane="southJunction_0" departPos="5.10" departSpeed="8.33" departDelay="0.72" arrival="145.00" arrivalLane="junctionEast_0" arrivalPos="492.80" arrivalSpeed="8.24" duration="135.00" routeLength="989.53" waitingTime="2.00" waitingCount="1" stopTime="0.00" timeLoss="15.74" rerouteNo="0" devices="tripinfo_southEast.0 ssm_southEast.0" vType="carCustom" speedFactor="0.91" vaporized=""/>
    <tripinfo id="southNorth.0" depart="7.00" departLane="southJunction_1" departPos="5.10" departSpeed="8.33" departDelay="0.99" arrival="147.00" arrivalLane="junctionNorth_0" arrivalPos="492.80" arrivalSpeed="7.42" duration="140.00" routeLength="995.01" waitingTime="6.00" waitingCount="1" stopTime="0.00" timeLoss="20.42" rerouteNo="0" devices="tripinfo_southNorth.0 ssm_southNorth.0" vType="carCustom" speedFactor="1.10" vaporized=""/>
    <tripinfo id="westEastTop.2" depart="16.00" departLane="westJunction_1" departPos="5.10" departSpeed="7.21" departDelay="0.34" arrival="151.00" arrivalLane="junctionEast_1" arrivalPos="492.80" arrivalSpeed="8.24" duration="135.00" routeLength="994.90" waitingTime="1.00" waitingCount="1" stopTime="0.00" timeLoss="15.38" rerouteNo="0" devices="tripinfo_westEastTop.2 ssm_westEastTop.2" vType="carCustom" speedFactor="1.01" vaporized=""/>
    <tripinfo id="westEastBottom0.0" depart="17.00" departLane="westJunction_0" departPos="5.10" departSpeed="8.33" departDelay="0.16" arrival="152.00" arrivalLane="junctionEast_0" arrivalPos="492.80" arrivalSpeed="7.99" duration="135.00" routeLength="994.90" waitingTime="1.00" waitingCount="1" stopTime="0.00" timeLoss="15.19" rerouteNo="0" devices="tripinfo_westEastBottom0.0 ssm_westEastBottom0.0" vType="carCustom" speedFactor="1.04" vaporized=""/>
    <tripinfo id="southNorth.1" depart="15.00" departLane="southJunction_1" departPos="5.10" departSpeed="7.80" departDelay="0.08" arrival="155.00" arrivalLane="junctionNorth_0" arrivalPos="492.80" arrivalSpeed="8.21" duration="140.00" routeLength="995.01" waitingTime="4.00" waitingCount="1" stopTime="0.00" timeLoss="20.33" rerouteNo="0" devices="tripinfo_southNorth.1 ssm_southNorth.1" vType="carCustom" speedFactor="0.87" vaporized=""/>
    <tripinfo id="southEast.1" depart="21.00" departLane="southJunction_0" departPos="5.10" departSpeed="7.89" departDelay="0.75" arrival="158.00" arrivalLane="junctionEast_0" arrivalPos="492.80" arrivalSpeed="7.49" duration="137.00" routeLength="989.53" waitingTime="1.00" waitingCount="1" stopTime="0.00" timeLoss="17.69" rerouteNo="0" devices="tripinfo_southEast.1 ssm_southEast.1" vType="carCustom" speedFactor="0.95" vaporized=""/>
    <tripinfo id="westEastBottom0.1" depart="19.00" departLane="westJunction_0" departPos="5.10" departSpeed="7.62" departDelay="0.59" arrival="164.00" arrivalLane="junctionEast_1" arrivalPos="492.80" arrivalSpeed="7.77" duration="145.00" routeLength="994.90" waitingTime="3.00" waitingCount="1" stopTime="0.00" timeLoss="25.32" rerouteNo="0" devices="tripinfo_westEastBottom0.1 ssm_westEastBottom0.1" vType="carCustom" speedFactor="0.84" vaporized=""/>
    <tripinfo id="westEastTop.3" depart="18.00" departLane="westJunction_1" departPos="5.10" departSpeed="7.23" departDelay="0.21" arrival="165.00" arrivalLane="junctionEast_0" arrivalPos="492.80" arrivalSpeed="7.58" duration="147.00" routeLength="994.90" waitingTime="2.00" waitingCount="1" stopTime="0.00" timeLoss="26.68" rerouteNo="0" devices="tripinfo_westEastTop.3 ssm_westEastTop.3" vType="carCustom" speedFactor="0.93" vaporized=""/>
    <tripinfo id="southNorth.2" depart="18.00" departLane="southJunction_1" departPos="5.10" departSpeed="8.23" departDelay="2.87" arrival="166.00" arrivalLane="junctionNorth_0" arrivalPos="492.80" arrivalSpeed="7.48" duration="148.00" routeLength="995.01" waitingTime="5.00" waitingCount="1" stopTime="0.00" timeLoss="28.28" rerouteNo="0" devices="tripinfo_southNorth.2 ssm_southNorth.2" vType="carCustom" speedFactor="0.92" vaporized=""/>
    <tripinfo id="southEast.2" depart="33.00" departLane="southJunction_0" departPos="5.10" departSpeed="8.12" departDelay="0.85" arrival="170.00" arrivalLane="junctionEast_0" arrivalPos="492.80" arrivalSpeed="7.98" duration="137.00" routeLength="989.53" waitingTime="0.00" waitingCount="0" stopTime="0.00" timeLoss="17.36" rerouteNo="0" devices="tripinfo_southEast.2 ssm_southEast.2" vType="carCustom" speedFactor="0.83" vaporized=""/>
    <tripinfo id="southNorth.3" depart="26.00" departLane="southJunction_1" departPos="5.10" departSpeed="6.98" departDelay="0.14" arrival="172.00" arrivalLane="junctionNorth_0" arrivalPos="492.80" arrivalSpeed="7.43" duration="146.00" routeLength="995.01" waitingTime="1.00" waitingCount="1" stopTime="0.00" timeLoss="26.40" rerouteNo="0" devices="tripinfo_southNorth.3 ssm_southNorth.3" vType="carCustom" speedFactor="1.03" vaporized=""/>
    <tripinfo id="westEastTop.4" depart="31.00" departLane="westJunction_1" departPos="5.10" departSpeed="6.47" departDelay="0.44" arrival="172.00" arrivalLane="junctionEast_1" arrivalPos="492.80" arrivalSpeed="7.40" duration="141.00" routeLength="994.90" waitingTime="4.00" waitingCount="1" stopTime="0.00" timeLoss="20.84" rerouteNo="0" devices="tripinfo_westEastTop.4 ssm_westEastTop.4" vType="carCustom" speedFactor="1.09" vaporized=""/>
    <tripinfo id="westEastBottom0.2" depart="39.00" departLane="westJunction_0" departPos="5.10" departSpeed="7.08" departDelay="0.32" arrival="176.00" arrivalLane="junctionEast_0" arrivalPos="492.80" arrivalSpeed="7.18" duration="137.00" routeLength="994.90" waitingTime="0.00" waitingCount="0" stopTime="0.00" timeLoss="17.44" rerouteNo="0" devices="tripinfo_westEastBottom0.2 ssm_westEastBottom0.2" vType="carCustom" speedFactor="0.92" vaporized=""/>
    <tripinfo id="westEastTop.5" depart="33.00" departLane="westJunction_1" departPos="5.10" departSpeed="7.74" departDelay="0.43" arrival="178.00" arrivalLane="junctionEast_1" arrivalPos="492.80" arrivalSpeed="7.86" duration="145.00" routeLength="994.90" waitingTime="0.00" waitingCount="0" stopTime="0.00" timeLoss="25.23" rerouteNo="0" devices="tripinfo_westEastTop.5 ssm_westEastTop.5" vType="carCustom" speedFactor="0.98" vaporized=""/>
    <tripinfo id="westEastBottom0.3" depart="50.00" departLane="westJunction_0" departPos="5.10" departSpeed="7.44" departDelay="0.28" arrival="182.00" arrivalLane="junctionEast_0" arrivalPos="492.80" arrivalSpeed="7.82" duration="132.00" routeLength="994.90" waitingTime="0.00" waitingCount="0" stopTime="0.00" timeLoss="12.43" rerouteNo="0" devices="tripinfo_westEastBottom0.3 ssm_westEastBottom0.3" vType="carCustom" speedFactor="1.07" vaporized=""/>
    <tripinfo id="westEastTop.6" depart="38.00" departLane="westJunction_1" departPos="5.10" departSpeed="5.07" departDelay="0.41" arrival="188.00" arrivalLane="junctionEast_1" arrivalPos="492.80" arrivalSpeed="7.30" duration="150.00" routeLength="994.90" waitingTime="0.00" waitingCount="0" stopTime="0.00" timeLoss="30.17" rerouteNo="0" devices="tripinfo_westEastTop.6 ssm_westEastTop.6" vType="carCustom" speedFactor="1.00" vaporized=""/>
    <tripinfo id="westEastTop.7" depart="41.00" departLane="westJunction_1" departPos="5.10" departSpeed="5.27" departDelay="1.93" arrival="188.00" arrivalLane="junctionEast_0" arrivalPos="492.80" arrivalSpeed="7.35" duration="147.00" routeLength="994.90" waitingTime="0.00" waitingCount="0" stopTime="0.00" timeLoss="27.53" rerouteNo="0" devices="tripinfo_westEastTop.7 ssm_westEastTop.7" vType="carCustom" speedFactor="1.14" vaporized=""/>
    <tripinfo id="westEastTop.8" depart="45.00" departLane="westJunction_1" departPos="5.10" departSpeed="3.42" departDelay="3.51" arrival="194.00" arrivalLane="junctionEast_1" arrivalPos="492.80" arrivalSpeed="7.96" duration="149.00" routeLength="994.90" waitingTime="0.00" waitingCount="0" stopTime="0.00" timeLoss="29.20" rerouteNo="0" devices="tripinfo_westEastTop.8 ssm_westEastTop.8" vType="carCustom" speedFactor="0.99" vaporized=""/>
    <tripinfo id="southEast.3" depart="52.00" departLane="southJunction_0" departPos="5.10" departSpeed="8.30" departDelay="0.57" arrival="195.00" arrivalLane="junctionEast_0" arrivalPos="492.80" arrivalSpeed="8.29" duration="143.00" routeLength="989.53" waitingTime="0.00" waitingCount="0" stopTime="0.00" timeLoss="23.24" rerouteNo="0" devices="tripinfo_southEast.3 ssm_southEast.3" vType="carCustom" speedFactor="0.99" vaporized=""/>
    <tripinfo id="westEastTop.9" depart="50.00" departLane="westJunction_1" departPos="5.10" departSpeed="3.97" departDelay="0.48" arrival="200.00" arrivalLane="junctionEast_1" arrivalPos="492.80" arrivalSpeed="7.97" duration="150.00" routeLength="994.90" waitingTime="0.00" waitingCount="0" stopTime="0.00" timeLoss="30.44" rerouteNo="0" devices="tripinfo_westEastTop.9 ssm_westEastTop.9" vType="carCustom" speedFactor="1.16" vaporized=""/>
    <tripinfo id="westEastBottom0.4" depart="53.00" departLane="westJunction_0" departPos="5.10" departSpeed="7.66" departDelay="1.63" arrival="201.00" arrivalLane="junctionEast_0" arrivalPos="492.80" arrivalSpeed="7.73" duration="148.00" routeLength="994.90" waitingTime="0.00" waitingCount="0" stopTime="0.00" timeLoss="28.02" rerouteNo="0" devices="tripinfo_westEastBottom0.4 ssm_westEastBottom0.4" vType="carCustom" speedFactor="0.95" vaporized=""/>
    <tripinfo id="westEastTop.10" depart="54.00" departLane="westJunction_1" departPos="5.10" departSpeed="3.20" departDelay="3.44" arrival="206.00" arrivalLane="junctionEast_1" arrivalPos="492.80" arrivalSpeed="8.31" duration="152.00" routeLength="994.90" waitingTime="0.00" waitingCount="0" stopTime="0.00" timeLoss="32.46" rerouteNo="0" devices="tripinfo_westEastTop.10 ssm_westEastTop.10" vType="carCustom" speedFactor="1.20" vaporized=""/>
    <tripinfo id="westEastBottom0.5" depart="56.00" departLane="westJunction_0" departPos="5.10" departSpeed="5.19" departDelay="3.53" arrival="207.00" arrivalLane="junctionEast_0" arrivalPos="492.80" arrivalSpeed="7.94" duration="151.00" routeLength="994.90" waitingTime="0.00" waitingCount="0" stopTime="0.00" timeLoss="31.08" rerouteNo="0" devices="tripinfo_westEastBottom0.5 ssm_westEastBottom0.5" vType="carCustom" speedFactor="0.97" vaporized=""/>
    <tripinfo id="westEastTop.11" depart="60.00" departLane="westJunction_1" departPos="5.10" departSpeed="3.17" departDelay="0.56" arrival="212.00" arrivalLane="junctionEast_1" arrivalPos="492.80" arrivalSpeed="8.04" duration="152.00" routeLength="994.90" waitingTime="0.00" waitingCount="0" stopTime="0.00" timeLoss="32.54" rerouteNo="0" devices="tripinfo_westEastTop.11 ssm_westEastTop.11" vType="carCustom" speedFactor="1.12" vaporized=""/>
    <tripinfo id="southNorth.4" depart="29.00" departLane="southJunction_1" departPos="5.10" departSpeed="7.54" departDelay="0.48" arrival="213.00" arrivalLane="junctionNorth_0" arrivalPos="492.80" arrivalSpeed="7.15" duration="184.00" routeLength="995.01" waitingTime="38.00" waitingCount="1" stopTime="0.00" timeLoss="64.24" rerouteNo="0" devices="tripinfo_southNorth.4 ssm_southNorth.4" vType="carCustom" speedFactor="0.99" vaporized=""/>
    <tripinfo id="westEastBottom0.6" depart="59.00" departLane="westJunction_0" departPos="5.10" departSpeed="4.19" departDelay="5.63" arrival="213.00" arrivalLane="junctionEast_0" arrivalPos="492.80" arrivalSpeed="8.08" duration="154.00" routeLength="994.90" waitingTime="0.00" waitingCount="0" stopTime="0.00" timeLoss="34.15" rerouteNo="0" devices="tripinfo_westEastBottom0.6 ssm_westEastBottom0.6" vType="carCustom" speedFactor="0.96" vaporized=""/>
    <tripinfo id="westEastBottom0.7" depart="64.00" departLane="westJunction_0" departPos="5.10" departSpeed="3.66" departDelay="1.34" arrival="219.00" arrivalLane="junctionEast_1" arrivalPos="492.80" arrivalSpeed="8.31" duration="155.00" routeLength="994.90" waitingTime="0.00" waitingCount="0" stopTime="0.00" timeLoss="34.63" rerouteNo="0" devices="tripinfo_westEastBottom0.7 ssm_westEastBottom0.7" vType="carCustom" speedFactor="1.05" vaporized=""/>
    <tripinfo id="southEast.5" depart="69.00" departLane="southJunction_0" departPos="5.10" departSpeed="8.16" departDelay="0.49" arrival="219.00" arrivalLane="junctionEast_0" arrivalPos="492.80" arrivalSpeed="7.63" duration="150.00" routeLength="989.53" waitingTime="5.00" waitingCount="1" stopTime="0.00" timeLoss="30.26" rerouteNo="0" devices="tripinfo_southEast.5 ssm_southEast.5" vType="carCustom" speedFactor="1.13" vaporized=""/>
    <tripinfo id="southNorth.5" depart="54.00" departLane="southJunction_1" departPos="5.10" departSpeed="7.10" departDelay="0.92" arrival="224.00" arrivalLane="junctionNorth_0" arrivalPos="492.80" arrivalSpeed="8.31" duration="170.00" routeLength="995.01" waitingTime="29.00" waitingCount="2" stopTime="0.00" timeLoss="49.93" rerouteNo="0" devices="tripinfo_southNorth.5 ssm_southNorth.5" vType="carCustom" speedFactor="0.95" vaporized=""/>
    <tripinfo id="westEastTop.12" depart="69.00" departLane="westJunction_1" departPos="5.10" departSpeed="3.80" departDelay="0.05" arrival="225.00" arrivalLane="junctionEast_1" arrivalPos="492.80" arrivalSpeed="7.40" duration="156.00" routeLength="994.90" waitingTime="1.00" waitingCount="1" stopTime="0.00" timeLoss="35.95" rerouteNo="0" devices="tripinfo_westEastTop.12 ssm_westEastTop.12" vType="carCustom" speedFactor="1.06" vaporized=""/>
    <tripinfo id="westEastBottom0.8" depart="70.00" departLane="westJunction_0" departPos="5.10" departSpeed="3.85" departDelay="0.45" arrival="225.00" arrivalLane="junctionEast_0" arrivalPos="492.80" arrivalSpeed="7.88" duration="155.00" routeLength="994.90" waitingTime="2.00" waitingCount="1" stopTime="0.00" timeLoss="35.04" rerouteNo="0" devices="tripinfo_westEastBottom0.8 ssm_westEastBottom0.8" vType="carCustom" speedFactor="1.00" vaporized=""/>
    <tripinfo id="westEastTop.13" depart="73.00" departLane="westJunction_1" departPos="5.10" departSpeed="4.79" departDelay="0.09" arrival="231.00" arrivalLane="junctionEast_1" arrivalPos="492.80" arrivalSpeed="7.20" duration="158.00" routeLength="994.90" waitingTime="3.00" waitingCount="1" stopTime="0.00" timeLoss="38.06" rerouteNo="0" devices="tripinfo_westEastTop.13 ssm_westEastTop.13" vType="carCustom" speedFactor="1.04" vaporized=""/>
    <tripinfo id="westEastBottom0.9" depart="75.00" departLane="westJunction_0" departPos="5.10" departSpeed="4.37" departDelay="0.82" arrival="231.00" arrivalLane="junctionEast_0" arrivalPos="492.80" arrivalSpeed="7.10" duration="156.00" routeLength="994.90" waitingTime="4.00" waitingCount="1" stopTime="0.00" timeLoss="36.33" rerouteNo="0" devices="tripinfo_westEastBottom0.9 ssm_westEastBottom0.9" vType="carCustom" speedFactor="1.03" vaporized=""/>
    <tripinfo id="southNorth.6" depart="60.00" departLane="southJunction_1" departPos="5.10" departSpeed="7.37" departDelay="0.54" arrival="234.00" arrivalLane="junctionNorth_0" arrivalPos="492.80" arrivalSpeed="7.28" duration="174.00" routeLength="995.01" waitingTime="26.00" waitingCount="3" stopTime="0.00" timeLoss="53.72" rerouteNo="0" devices="tripinfo_southNorth.6 ssm_southNorth.6" vType="carCustom" speedFactor="0.85" vaporized=""/>
    <tripinfo id="westEastTop.14" depart="76.00" departLane="westJunction_1" departPos="5.10" departSpeed="4.41" departDelay="1.66" arrival="237.00" arrivalLane="junctionEast_1" arrivalPos="492.80" arrivalSpeed="7.45" duration="161.00" routeLength="994.90" waitingTime="0.00" waitingCount="0" stopTime="0.00" timeLoss="41.23" rerouteNo="0" devices="tripinfo_westEastTop.14 ssm_westEastTop.14" vType="carCustom" speedFactor="1.06" vaporized=""/>
    <tripinfo id="southEast.6" depart="99.00" departLane="southJunction_0" departPos="5.10" departSpeed="7.40" departDelay="0.08" arrival="237.00" arrivalLane="junctionEast_0" arrivalPos="492.80" arrivalSpeed="7.08" duration="138.00" routeLength="989.53" waitingTime="0.00" waitingCount="0" stopTime="0.00" timeLoss="18.38" rerouteNo="0" devices="tripinfo_southEast.6 ssm_southEast.6" vType="carCustom" speedFactor="1.02" vaporized=""/>
    <tripinfo id="southEast.13" depart="158.00" departLane="southJunction_0" departPos="5.10" departSpeed="6.24" departDelay="0.58" arrival="239.00" arrivalLane="junctionEast_0" arrivalPos="492.80" arrivalSpeed="3.47" duration="81.00" routeLength="989.53" waitingTime="3.00" waitingCount="1" stopTime="0.00" timeLoss="20.79" rerouteNo="0" devices="tripinfo_southEast.13 ssm_southEast.13" vType="carCustom" speedFactor="1.06" vaporized="teleport"/>
    <tripinfo id="westEastTop.15" depart="80.00" departLane="westJunction_1" departPos="5.10" departSpeed="2.73" departDelay="3.25" arrival="243.00" arrivalLane="junctionEast_1" arrivalPos="492.80" arrivalSpeed="7.20" duration="163.00" routeLength="994.90" waitingTime="0.00" waitingCount="0" stopTime="0.00" timeLoss="43.14" rerouteNo="0" devices="tripinfo_westEastTop.15 ssm_westEastTop.15" vType="carCustom" speedFactor="1.01" vaporized=""/>
    <tripinfo id="southNorth.7" depart="78.00" departLane="southJunction_1" departPos="5.10" departSpeed="7.45" departDelay="0.21" arrival="243.00" arrivalLane="junctionNorth_0" arrivalPos="492.80" arrivalSpeed="7.29" duration="165.00" routeLength="995.01" waitingTime="11.00" waitingCount="4" stopTime="0.00" timeLoss="45.08" rerouteNo="0" devices="tripinfo_southNorth.7 ssm_southNorth.7" vType="carCustom" speedFactor="0.99" vaporized=""/>
    <tripinfo id="westEastBottom0.10" depart="97.00" departLane="westJunction_0" departPos="5.10" departSpeed="5.73" departDelay="0.28" arrival="243.00" arrivalLane="junctionEast_0" arrivalPos="492.80" arrivalSpeed="7.94" duration="146.00" routeLength="994.90" waitingTime="4.00" waitingCount="1" stopTime="0.00" timeLoss="25.79" rerouteNo="0" devices="tripinfo_westEastBottom0.10 ssm_westEastBottom0.10" vType="carCustom" speedFactor="1.06" vaporized=""/>
    <tripinfo id="westEastBottom0.18" depart="149.00" departLane="westJunction_0" departPos="5.10" departSpeed="7.37" departDelay="3.38" arrival="244.00" arrivalLane="junctionEast_0" arrivalPos="492.80" arrivalSpeed="2.43" duration="95.00" routeLength="994.90" waitingTime="0.00" waitingCount="0" stopTime="0.00" timeLoss="34.49" rerouteNo="0" devices="tripinfo_westEastBottom0.18 ssm_westEastBottom0.18" vType="carCustom" speedFactor="1.03" vaporized="teleport"/>
    <tripinfo id="westEastTop.16" depart="85.00" departLane="westJunction_1" departPos="5.10" departSpeed="3.50" departDelay="7.14" arrival="249.00" arrivalLane="junctionEast_1" arrivalPos="492.80" arrivalSpeed="8.03" duration="164.00" routeLength="994.90" waitingTime="3.00" waitingCount="1" stopTime="0.00" timeLoss="44.10" rerouteNo="0" devices="tripinfo_westEastTop.16 ssm_westEastTop.16" vType="carCustom" speedFactor="0.94" vaporized=""/>
    <tripinfo id="southEast.7" depart="101.00" departLane="southJunction_0" departPos="5.10" departSpeed="7.29" departDelay="1.47" arrival="249.00" arrivalLane="junctionEast_0" arrivalPos="492.80" arrivalSpeed="7.73" duration="148.00" routeLength="989.53" waitingTime="2.00" waitingCount="1" stopTime="0.00" timeLoss="28.34" rerouteNo="0" devices="tripinfo_southEast.7 ssm_southEast.7" vType="carCustom" speedFactor="1.10" vaporized=""/>
    <tripinfo id="southNorth.8" depart="81.00" departLane="southJunction_1" departPos="5.10" departSpeed="8.19" departDelay="1.84" arrival="254.00" arrivalLane="junctionNorth_0" arrivalPos="492.80" arrivalSpeed="7.39" duration="173.00" routeLength="995.01" waitingTime="5.00" waitingCount="2" stopTime="0.00" timeLoss="52.94" rerouteNo="0" devices="tripinfo_southNorth.8 ssm_southNorth.8" vType="carCustom" speedFactor="1.13" vaporized=""/>
    <tripinfo id="westEastBottom0.11" depart="109.00" departLane="westJunction_0" departPos="5.10" departSpeed="7.09" departDelay="0.14" arrival="255.00" arrivalLane="junctionEast_0" arrivalPos="492.80" arrivalSpeed="8.20" duration="146.00" routeLength="994.90" waitingTime="3.00" waitingCount="1" stopTime="0.00" timeLoss="25.79" rerouteNo="0" devices="tripinfo_westEastBottom0.11 ssm_westEastBottom0.11" vType="carCustom" speedFactor="1.02" vaporized=""/>
    <tripinfo id="southEast.8" depart="104.00" departLane="southJunction_0" departPos="5.10" departSpeed="4.85" departDelay="1.90" arrival="260.00" arrivalLane="junctionEast_1" arrivalPos="492.80" arrivalSpeed="8.22" duration="156.00" routeLength="989.53" waitingTime="4.00" waitingCount="1" stopTime="0.00" timeLoss="36.40" rerouteNo="0" devices="tripinfo_southEast.8 ssm_southEast.8" vType="carCustom" speedFactor="0.99" vaporized=""/>
    <tripinfo id="westEastTop.17" depart="94.00" departLane="westJunction_1" departPos="5.10" departSpeed="3.73" departDelay="0.09" arrival="261.00" arrivalLane="junctionEast_0" arrivalPos="492.80" arrivalSpeed="7.69" duration="167.00" routeLength="994.90" waitingTime="4.00" waitingCount="1" stopTime="0.00" timeLoss="46.77" rerouteNo="0" devices="tripinfo_westEastTop.17 ssm_westEastTop.17" vType="carCustom" speedFactor="1.01" vaporized=""/>
    <tripinfo id="southNorth.9" depart="84.00" departLane="southJunction_1" departPos="5.10" departSpeed="5.54" departDelay="1.98" arrival="263.00" arrivalLane="junctionNorth_0" arrivalPos="492.80" arrivalSpeed="7.25" duration="179.00" routeLength="995.01" waitingTime="6.00" waitingCount="2" stopTime="0.00" timeLoss="59.08" rerouteNo="0" devices="tripinfo_southNorth.9 ssm_southNorth.9" vType="carCustom" speedFactor="0.97" vaporized=""/>
    <tripinfo id="westEastBottom0.12" depart="112.00" departLane="westJunction_0" departPos="5.10" departSpeed="7.53" departDelay="1.35" arrival="267.00" arrivalLane="junctionEast_0" arrivalPos="492.80" arrivalSpeed="7.70" duration="155.00" routeLength="994.90" waitingTime="4.00" waitingCount="1" stopTime="0.00" timeLoss="34.69" rerouteNo="0" devices="tripinfo_westEastBottom0.12 ssm_westEastBottom0.12" vType="carCustom" speedFactor="0.95" vaporized=""/>
    <tripinfo id="southNorth.10" depart="90.00" departLane="southJunction_1" departPos="5.10" departSpeed="5.33" departDelay="0.05" arrival="269.00" arrivalLane="junctionNorth_0" arrivalPos="492.80" arrivalSpeed="8.31" duration="179.00" routeLength="995.01" waitingTime="2.00" waitingCount="2" stopTime="0.00" timeLoss="59.49" rerouteNo="0" devices="tripinfo_southNorth.10 ssm_southNorth.10" vType="carCustom" speedFactor="0.97" vaporized=""/>
    <tripinfo id="westEastTop.18" depart="97.00" departLane="westJunction_1" departPos="5.10" departSpeed="4.24" departDelay="1.09" arrival="272.00" arrivalLane="junctionEast_0" arrivalPos="492.80" arrivalSpeed="7.80" duration="175.00" routeLength="994.90" waitingTime="4.00" waitingCount="1" stopTime="0.00" timeLoss="55.51" rerouteNo="0" devices="tripinfo_westEastTop.18 ssm_westEastTop.18" vType="carCustom" speedFactor="1.06" vaporized=""/>
    <tripinfo id="southEast.9" depart="111.00" departLane="southJunction_0" departPos="5.10" departSpeed="4.80" departDelay="0.78" arrival="272.00" arrivalLane="junctionEast_1" arrivalPos="492.80" arrivalSpeed="7.75" duration="161.00" routeLength="989.53" waitingTime="4.00" waitingCount="1" stopTime="0.00" timeLoss="41.22" rerouteNo="0" devices="tripinfo_southEast.9 ssm_southEast.9" vType="carCustom" speedFactor="1.04" vaporized=""/>
    <tripinfo id="southNorth.11" depart="93.00" departLane="southJunction_1" departPos="5.10" departSpeed="4.70" departDelay="0.90" arrival="276.00" arrivalLane="junctionNorth_0" arrivalPos="492.80" arrivalSpeed="7.64" duration="183.00" routeLength="995.01" waitingTime="1.00" waitingCount="1" stopTime="0.00" timeLoss="62.76" rerouteNo="0" devices="tripinfo_southNorth.11 ssm_southNorth.11" vType="carCustom" speedFactor="1.14" vaporized=""/>
    <tripinfo id="westEastTop.19" depart="101.00" departLane="westJunction_1" departPos="5.10" departSpeed="4.39" departDelay="2.10" arrival="278.00" arrivalLane="junctionEast_1" arrivalPos="492.80" arrivalSpeed="7.94" duration="177.00" routeLength="994.90" waitingTime="7.00" waitingCount="2" stopTime="0.00" timeLoss="57.33" rerouteNo="0" devices="tripinfo_westEastTop.19 ssm_westEastTop.19" vType="carCustom" speedFactor="1.03" vaporized=""/>
    <tripinfo id="westEastBottom0.13" depart="120.00" departLane="westJunction_0" departPos="5.10" departSpeed="6.02" departDelay="0.54" arrival="278.00" arrivalLane="junctionEast_0" arrivalPos="492.80" arrivalSpeed="7.51" duration="158.00" routeLength="994.90" waitingTime="5.00" waitingCount="1" stopTime="0.00" timeLoss="38.23" rerouteNo="0" devices="tripinfo_westEastBottom0.13 ssm_westEastBottom0.13" vType="carCustom" speedFactor="1.13" vaporized=""/>
    <tripinfo id="southNorth.12" depart="107.00" departLane="southJunction_1" departPos="5.10" departSpeed="5.59" departDelay="0.46" arrival="283.00" arrivalLane="junctionNorth_0" arrivalPos="492.80" arrivalSpeed="7.94" duration="176.00" routeLength="995.01" waitingTime="4.00" waitingCount="1" stopTime="0.00" timeLoss="55.67" rerouteNo="0" devices="tripinfo_southNorth.12 ssm_southNorth.12" vType="carCustom" speedFactor="1.00" vaporized=""/>
    <tripinfo id="southEast.10" depart="145.00" departLane="southJunction_0" departPos="5.10" departSpeed="7.23" departDelay="0.04" arrival="284.00" arrivalLane="junctionEast_0" arrivalPos="492.80" arrivalSpeed="7.98" duration="139.00" routeLength="989.53" waitingTime="0.00" waitingCount="0" stopTime="0.00" timeLoss="19.77" rerouteNo="0" devices="tripinfo_southEast.10 ssm_southEast.10" vType="carCustom" speedFactor="1.05" vaporized=""/>
    <tripinfo id="westEastBottom0.14" depart="122.00" departLane="westJunction_0" departPos="5.10" departSpeed="6.85" departDelay="2.14" arrival="289.00" arrivalLane="junctionEast_0" arrivalPos="492.80" arrivalSpeed="7.99" duration="167.00" routeLength="994.90" waitingTime="5.00" waitingCount="1" stopTime="0.00" timeLoss="47.43" rerouteNo="0" devices="tripinfo_westEastBottom0.14 ssm_westEastBottom0.14" vType="carCustom" speedFactor="1.02" vaporized=""/>
    <tripinfo id="southEast.11" depart="151.00" departLane="southJunction_0" departPos="5.10" departSpeed="7.54" departDelay="0.51" arrival="290.00" arrivalLane="junctionEast_1" arrivalPos="492.80" arrivalSpeed="8.19" duration="139.00" routeLength="989.53" waitingTime="0.00" waitingCount="0" stopTime="0.00" timeLoss="19.73" rerouteNo="0" devices="tripinfo_southEast.11 ssm_southEast.11" vType="carCustom" speedFactor="1.11" vaporized=""/>
    <tripinfo id="southNorth.13" depart="119.00" departLane="southJunction_1" departPos="5.10" departSpeed="7.66" departDelay="0.96" arrival="294.00" arrivalLane="junctionNorth_0" arrivalPos="492.80" arrivalSpeed="7.91" duration="175.00" routeLength="995.01" waitingTime="6.00" waitingCount="2" stopTime="0.00" timeLoss="54.64" rerouteNo="0" devices="tripinfo_southNorth.13 ssm_southNorth.13" vType="carCustom" speedFactor="1.14" vaporized=""/>