<?xml version="1.0" encoding="UTF-8"?>

<!-- generated on 2025-04-29 05:31:49 by Eclipse SUMO sumo Version 1.20.0
<configuration xmlns:xsi="http://www.w3.org/2001/XMLSchema-instance" xsi:noNamespaceSchemaLocation="http://sumo.dlr.de/xsd/sumoConfiguration.xsd">

    <input>
        <net-file value="nets/2lane_unprotected_right/2lane_unprotected_right.net.xml"/>
        <route-files value="nets/2lane_unprotected_right/2lane_unprotected_right.rou.xml"/>
    </input>

    <output>
        <tripinfo-output value="traces/transs50f1_s50_f0.5_random/0067_tripinfo.xml"/>
        <collision-output value="traces/transs50f1_s50_f0.5_random/0067_collisions.xml"/>
        <statistic-output value="traces/transs50f1_s50_f0.5_random/0067_statistics.xml"/>
    </output>

    <processing>
        <collision.action value="teleport"/>
        <collision.check-junctions value="true"/>
        <time-to-teleport value="-1"/>
        <waiting-time-memory value="1000"/>
        <max-depart-delay value="-1"/>
        <default.speeddev value="0.1"/>
    </processing>

    <report>
        <no-warnings value="true"/>
    </report>

    <ssm_device>
        <device.ssm.probability value="1.0"/>
        <device.ssm.measures value="BR"/>
        <device.ssm.file value="/Users/finn/Code/CausalKnowledgeTransfer-4-SafeRL/traces/transs50f1_s50_f0.5_random/0067_ssm.xml"/>
    </ssm_device>

    <traci_server>
        <remote-port value="63239"/>
    </traci_server>

    <random_number>
        <random value="true"/>
    </random_number>

</configuration>
-->

<tripinfos xmlns:xsi="http://www.w3.org/2001/XMLSchema-instance" xsi:noNamespaceSchemaLocation="http://sumo.dlr.de/xsd/tripinfo_file.xsd">
    <tripinfo id="westEastTop.0" depart="1.00" departLane="westJunction_1" departPos="5.10" departSpeed="8.33" departDelay="0.39" arrival="131.00" arrivalLane="junctionEast_0" arrivalPos="492.80" arrivalSpeed="7.66" duration="130.00" routeLength="994.90" waitingTime="0.00" waitingCount="0" stopTime="0.00" timeLoss="9.84" rerouteNo="0" devices="tripinfo_westEastTop.0 ssm_westEastTop.0" vType="carCustom" speedFactor="0.96" vaporized=""/>
    <tripinfo id="southNorth.0" depart="3.00" departLane="southJunction_1" departPos="5.10" departSpeed="8.33" departDelay="0.28" arrival="137.00" arrivalLane="junctionNorth_0" arrivalPos="492.80" arrivalSpeed="7.94" duration="134.00" routeLength="995.01" waitingTime="1.00" waitingCount="1" stopTime="0.00" timeLoss="14.07" rerouteNo="0" devices="tripinfo_southNorth.0 ssm_southNorth.0" vType="carCustom" speedFactor="1.05" vaporized=""/>
    <tripinfo id="westEastTop.1" depart="13.00" departLane="westJunction_1" departPos="5.10" departSpeed="7.83" departDelay="0.21" arrival="142.00" arrivalLane="junctionEast_1" arrivalPos="492.80" arrivalSpeed="8.02" duration="129.00" routeLength="994.90" waitingTime="0.00" waitingCount="0" stopTime="0.00" timeLoss="8.81" rerouteNo="0" devices="tripinfo_westEastTop.1 ssm_westEastTop.1" vType="carCustom" speedFactor="0.98" vaporized=""/>
    <tripinfo id="westEastBottom0.0" depart="14.00" departLane="westJunction_0" departPos="5.10" departSpeed="8.33" departDelay="0.70" arrival="143.00" arrivalLane="junctionEast_0" arrivalPos="492.80" arrivalSpeed="7.39" duration="129.00" routeLength="994.90" waitingTime="0.00" waitingCount="0" stopTime="0.00" timeLoss="9.04" rerouteNo="0" devices="tripinfo_westEastBottom0.0 ssm_westEastBottom0.0" vType="carCustom" speedFactor="0.88" vaporized=""/>
    <tripinfo id="westEastTop.2" depart="15.00" departLane="westJunction_1" departPos="5.10" departSpeed="7.75" departDelay="1.75" arrival="146.00" arrivalLane="junctionEast_0" arrivalPos="492.80" arrivalSpeed="7.67" duration="131.00" routeLength="994.90" waitingTime="0.00" waitingCount="0" stopTime="0.00" timeLoss="11.09" rerouteNo="0" devices="tripinfo_westEastTop.2 ssm_westEastTop.2" vType="carCustom" speedFactor="1.06" vaporized=""/>
    <tripinfo id="westEastTop.3" depart="17.00" departLane="westJunction_1" departPos="5.10" departSpeed="6.23" departDelay="3.53" arrival="148.00" arrivalLane="junctionEast_1" arrivalPos="492.80" arrivalSpeed="7.92" duration="131.00" routeLength="994.90" waitingTime="0.00" waitingCount="0" stopTime="0.00" timeLoss="11.17" rerouteNo="0" devices="tripinfo_westEastTop.3 ssm_westEastTop.3" vType="carCustom" speedFactor="0.94" vaporized=""/>
    <tripinfo id="westEastTop.4" depart="20.00" departLane="westJunction_1" departPos="5.10" departSpeed="7.67" departDelay="2.76" arrival="150.00" arrivalLane="junctionEast_0" arrivalPos="492.80" arrivalSpeed="8.05" duration="130.00" routeLength="994.90" waitingTime="0.00" waitingCount="0" stopTime="0.00" timeLoss="9.71" rerouteNo="0" devices="tripinfo_westEastTop.4 ssm_westEastTop.4" vType="carCustom" speedFactor="1.15" vaporized=""/>
    <tripinfo id="southEast.0" depart="23.00" departLane="southJunction_0" departPos="5.10" departSpeed="8.33" departDelay="0.84" arrival="152.00" arrivalLane="junctionEast_0" arrivalPos="492.80" arrivalSpeed="8.20" duration="129.00" routeLength="989.53" waitingTime="0.00" waitingCount="0" stopTime="0.00" timeLoss="9.84" rerouteNo="0" devices="tripinfo_southEast.0 ssm_southEast.0" vType="carCustom" speedFactor="1.04" vaporized=""/>
    <tripinfo id="westEastTop.5" depart="23.00" departLane="westJunction_1" departPos="5.10" departSpeed="7.33" departDelay="0.95" arrival="153.00" arrivalLane="junctionEast_1" arrivalPos="492.80" arrivalSpeed="7.28" duration="130.00" routeLength="994.90" waitingTime="0.00" waitingCount="0" stopTime="0.00" timeLoss="10.16" rerouteNo="0" devices="tripinfo_westEastTop.5 ssm_westEastTop.5" vType="carCustom" speedFactor="1.02" vaporized=""/>
    <tripinfo id="southNorth.1" depart="23.00" departLane="southJunction_1" departPos="5.10" departSpeed="8.32" departDelay="0.70" arrival="156.00" arrivalLane="junctionNorth_0" arrivalPos="492.80" arrivalSpeed="7.17" duration="133.00" routeLength="995.01" waitingTime="0.00" waitingCount="0" stopTime="0.00" timeLoss="13.30" rerouteNo="0" devices="tripinfo_southNorth.1 ssm_southNorth.1" vType="carCustom" speedFactor="1.01" vaporized=""/>
    <tripinfo id="southNorth.2" depart="28.00" departLane="southJunction_1" departPos="5.10" departSpeed="8.01" departDelay="0.85" arrival="159.00" arrivalLane="junctionNorth_0" arrivalPos="492.80" arrivalSpeed="7.84" duration="131.00" routeLength="995.01" waitingTime="0.00" waitingCount="0" stopTime="0.00" timeLoss="10.86" rerouteNo="0" devices="tripinfo_southNorth.2 ssm_southNorth.2" vType="carCustom" speedFactor="1.07" vaporized=""/>
    <tripinfo id="westEastTop.6" depart="25.00" departLane="westJunction_1" departPos="5.10" departSpeed="7.38" departDelay="1.63" arrival="161.00" arrivalLane="junctionEast_0" arrivalPos="492.80" arrivalSpeed="7.10" duration="136.00" routeLength="994.90" waitingTime="2.00" waitingCount="1" stopTime="0.00" timeLoss="16.07" rerouteNo="0" devices="tripinfo_westEastTop.6 ssm_westEastTop.6" vType="carCustom" speedFactor="0.99" vaporized=""/>
    <tripinfo id="westEastTop.7" depart="28.00" departLane="westJunction_1" departPos="5.10" departSpeed="7.58" departDelay="0.61" arrival="164.00" arrivalLane="junctionEast_0" arrivalPos="492.80" arrivalSpeed="7.69" duration="136.00" routeLength="994.90" waitingTime="2.00" waitingCount="1" stopTime="0.00" timeLoss="15.96" rerouteNo="0" devices="tripinfo_westEastTop.7 ssm_westEastTop.7" vType="carCustom" speedFactor="0.88" vaporized=""/>
    <tripinfo id="westEastTop.8" depart="30.00" departLane="westJunction_1" departPos="5.10" departSpeed="7.42" departDelay="1.29" arrival="166.00" arrivalLane="junctionEast_1" arrivalPos="492.80" arrivalSpeed="7.24" duration="136.00" routeLength="994.90" waitingTime="0.00" waitingCount="0" stopTime="0.00" timeLoss="16.23" rerouteNo="0" devices="tripinfo_westEastTop.8 ssm_westEastTop.8" vType="carCustom" speedFactor="0.99" vaporized=""/>
    <tripinfo id="southEast.1" depart="31.00" departLane="southJunction_0" departPos="5.10" departSpeed="7.14" departDelay="0.44" arrival="166.00" arrivalLane="junctionEast_0" arrivalPos="492.80" arrivalSpeed="7.10" duration="135.00" routeLength="989.53" waitingTime="2.00" waitingCount="1" stopTime="0.00" timeLoss="15.75" rerouteNo="0" devices="tripinfo_southEast.1 ssm_southEast.1" vType="carCustom" speedFactor="1.09" vaporized=""/>
    <tripinfo id="southNorth.3" depart="33.00" departLane="southJunction_1" departPos="5.10" departSpeed="8.22" departDelay="0.14" arrival="172.00" arrivalLane="junctionNorth_0" arrivalPos="492.80" arrivalSpeed="8.08" duration="139.00" routeLength="995.01" waitingTime="5.00" waitingCount="1" stopTime="0.00" timeLoss="18.85" rerouteNo="0" devices="tripinfo_southNorth.3 ssm_southNorth.3" vType="carCustom" speedFactor="1.11" vaporized=""/>
    <tripinfo id="southNorth.4" depart="36.00" departLane="southJunction_1" departPos="5.10" departSpeed="7.61" departDelay="1.14" arrival="174.00" arrivalLane="junctionNorth_0" arrivalPos="492.80" arrivalSpeed="7.92" duration="138.00" routeLength="995.01" waitingTime="3.00" waitingCount="1" stopTime="0.00" timeLoss="18.15" rerouteNo="0" devices="tripinfo_southNorth.4 ssm_southNorth.4" vType="carCustom" speedFactor="1.00" vaporized=""/>
    <tripinfo id="westEastTop.9" depart="44.00" departLane="westJunction_1" departPos="5.10" departSpeed="7.92" departDelay="0.21" arrival="175.00" arrivalLane="junctionEast_0" arrivalPos="492.80" arrivalSpeed="8.00" duration="131.00" routeLength="994.90" waitingTime="0.00" waitingCount="0" stopTime="0.00" timeLoss="11.02" rerouteNo="0" devices="tripinfo_westEastTop.9 ssm_westEastTop.9" vType="carCustom" speedFactor="0.96" vaporized=""/>
    <tripinfo id="westEastBottom0.1" depart="42.00" departLane="westJunction_0" departPos="5.10" departSpeed="7.20" departDelay="0.01" arrival="177.00" arrivalLane="junctionEast_0" arrivalPos="492.80" arrivalSpeed="7.50" duration="135.00" routeLength="994.90" waitingTime="0.00" waitingCount="0" stopTime="0.00" timeLoss="15.13" rerouteNo="0" devices="tripinfo_westEastBottom0.1 ssm_westEastBottom0.1" vType="carCustom" speedFactor="0.90" vaporized=""/>
    <tripinfo id="westEastBottom0.2" depart="47.00" departLane="westJunction_0" departPos="5.10" departSpeed="7.98" departDelay="0.77" arrival="177.00" arrivalLane="junctionEast_1" arrivalPos="492.80" arrivalSpeed="8.24" duration="130.00" routeLength="994.90" waitingTime="0.00" waitingCount="0" stopTime="0.00" timeLoss="10.47" rerouteNo="0" devices="tripinfo_westEastBottom0.2 ssm_westEastBottom0.2" vType="carCustom" speedFactor="1.03" vaporized=""/>
    <tripinfo id="southNorth.5" depart="39.00" departLane="southJunction_1" departPos="5.10" departSpeed="7.73" departDelay="2.82" arrival="181.00" arrivalLane="junctionNorth_0" arrivalPos="492.80" arrivalSpeed="8.13" duration="142.00" routeLength="995.01" waitingTime="4.00" waitingCount="2" stopTime="0.00" timeLoss="21.83" rerouteNo="0" devices="tripinfo_southNorth.5 ssm_southNorth.5" vType="carCustom" speedFactor="0.91" vaporized=""/>
    <tripinfo id="southNorth.6" depart="41.00" departLane="southJunction_1" departPos="5.10" departSpeed="7.44" departDelay="2.18" arrival="183.00" arrivalLane="junctionNorth_0" arrivalPos="492.80" arrivalSpeed="7.75" duration="142.00" routeLength="995.01" waitingTime="3.00" waitingCount="1" stopTime="0.00" timeLoss="22.44" rerouteNo="0" devices="tripinfo_southNorth.6 ssm_southNorth.6" vType="carCustom" speedFactor="1.13" vaporized=""/>
    <tripinfo id="westEastBottom0.3" depart="55.00" departLane="westJunction_0" departPos="5.10" departSpeed="7.30" departDelay="0.83" arrival="184.00" arrivalLane="junctionEast_0" arrivalPos="492.80" arrivalSpeed="7.97" duration="129.00" routeLength="994.90" waitingTime="0.00" waitingCount="0" stopTime="0.00" timeLoss="9.50" rerouteNo="0" devices="tripinfo_westEastBottom0.3 ssm_westEastBottom0.3" vType="carCustom" speedFactor="0.77" vaporized=""/>
    <tripinfo id="westEastBottom0.4" depart="57.00" departLane="westJunction_0" departPos="5.10" departSpeed="8.31" departDelay="1.45" arrival="188.00" arrivalLane="junctionEast_0" arrivalPos="492.80" arrivalSpeed="7.24" duration="131.00" routeLength="994.90" waitingTime="0.00" waitingCount="0" stopTime="0.00" timeLoss="10.71" rerouteNo="0" devices="tripinfo_westEastBottom0.4 ssm_westEastBottom0.4" vType="carCustom" speedFactor="1.07" vaporized=""/>
    <tripinfo id="westEastTop.10" depart="58.00" departLane="westJunction_1" departPos="5.10" departSpeed="7.47" departDelay="0.71" arrival="188.00" arrivalLane="junctionEast_1" arrivalPos="492.80" arrivalSpeed="7.38" duration="130.00" routeLength="994.90" waitingTime="0.00" waitingCount="0" stopTime="0.00" timeLoss="9.88" rerouteNo="0" devices="tripinfo_westEastTop.10 ssm_westEastTop.10" vType="carCustom" speedFactor="1.06" vaporized=""/>
    <tripinfo id="westEastBottom0.5" depart="61.00" departLane="westJunction_0" departPos="5.10" departSpeed="7.61" departDelay="0.62" arrival="192.00" arrivalLane="junctionEast_0" arrivalPos="492.80" arrivalSpeed="7.99" duration="131.00" routeLength="994.90" waitingTime="0.00" waitingCount="0" stopTime="0.00" timeLoss="10.78" rerouteNo="0" devices="tripinfo_westEastBottom0.5 ssm_westEastBottom0.5" vType="carCustom" speedFactor="0.92" vaporized=""/>
    <tripinfo id="westEastTop.11" depart="65.00" departLane="westJunction_1" departPos="5.10" departSpeed="8.24" departDelay="0.77" arrival="195.00" arrivalLane="junctionEast_0" arrivalPos="492.80" arrivalSpeed="7.56" duration="130.00" routeLength="994.90" waitingTime="0.00" waitingCount="0" stopTime="0.00" timeLoss="9.81" rerouteNo="0" devices="tripinfo_westEastTop.11 ssm_westEastTop.11" vType="carCustom" speedFactor="1.18" vaporized=""/>
    <tripinfo id="westEastTop.12" depart="67.00" departLane="westJunction_1" departPos="5.10" departSpeed="8.08" departDelay="0.75" arrival="197.00" arrivalLane="junctionEast_0" arrivalPos="492.80" arrivalSpeed="7.97" duration="130.00" routeLength="994.90" waitingTime="0.00" waitingCount="0" stopTime="0.00" timeLoss="10.16" rerouteNo="0" devices="tripinfo_westEastTop.12 ssm_westEastTop.12" vType="carCustom" speedFactor="1.15" vaporized=""/>
    <tripinfo id="southNorth.7" depart="68.00" departLane="southJunction_1" departPos="5.10" departSpeed="7.47" departDelay="0.87" arrival="199.00" arrivalLane="junctionNorth_0" arrivalPos="492.80" arrivalSpeed="7.44" duration="131.00" routeLength="995.01" waitingTime="0.00" waitingCount="0" stopTime="0.00" timeLoss="10.94" rerouteNo="0" devices="tripinfo_southNorth.7 ssm_southNorth.7" vType="carCustom" speedFactor="0.95" vaporized=""/>
    <tripinfo id="westEastBottom0.6" depart="73.00" departLane="westJunction_0" departPos="5.10" departSpeed="7.15" departDelay="0.70" arrival="204.00" arrivalLane="junctionEast_0" arrivalPos="492.80" arrivalSpeed="8.20" duration="131.00" routeLength="994.90" waitingTime="0.00" waitingCount="0" stopTime="0.00" timeLoss="11.57" rerouteNo="0" devices="tripinfo_westEastBottom0.6 ssm_westEastBottom0.6" vType="carCustom" speedFactor="0.93" vaporized=""/>
    <tripinfo id="westEastTop.13" depart="69.00" departLane="westJunction_1" departPos="5.10" departSpeed="6.96" departDelay="1.15" arrival="205.00" arrivalLane="junctionEast_1" arrivalPos="492.80" arrivalSpeed="7.71" duration="136.00" routeLength="994.90" waitingTime="2.00" waitingCount="1" stopTime="0.00" timeLoss="16.14" rerouteNo="0" devices="tripinfo_westEastTop.13 ssm_westEastTop.13" vType="carCustom" speedFactor="0.80" vaporized=""/>
    <tripinfo id="westEastTop.14" depart="73.00" departLane="westJunction_1" departPos="5.10" departSpeed="7.12" departDelay="0.14" arrival="208.00" arrivalLane="junctionEast_1" arrivalPos="492.80" arrivalSpeed="7.33" duration="135.00" routeLength="994.90" waitingTime="0.00" waitingCount="0" stopTime="0.00" timeLoss="15.05" rerouteNo="0" devices="tripinfo_westEastTop.14 ssm_westEastTop.14" vType="carCustom" speedFactor="0.89" vaporized=""/>
    <tripinfo id="westEastBottom0.7" depart="77.00" departLane="westJunction_0" departPos="5.10" departSpeed="8.05" departDelay="0.56" arrival="208.00" arrivalLane="junctionEast_0" arrivalPos="492.80" arrivalSpeed="7.67" duration="131.00" routeLength="994.90" waitingTime="0.00" waitingCount="0" stopTime="0.00" timeLoss="11.31" rerouteNo="0" devices="tripinfo_westEastBottom0.7 ssm_westEastBottom0.7" vType="carCustom" speedFactor="1.02" vaporized=""/>
    <tripinfo id="southEast.2" depart="78.00" departLane="southJunction_0" departPos="5.10" departSpeed="8.28" departDelay="0.13" arrival="210.00" arrivalLane="junctionEast_1" arrivalPos="492.80" arrivalSpeed="7.81" duration="132.00" routeLength="989.53" waitingTime="0.00" waitingCount="0" stopTime="0.00" timeLoss="12.99" rerouteNo="0" devices="tripinfo_southEast.2 ssm_southEast.2" vType="carCustom" speedFactor="1.16" vaporized=""/>
    <tripinfo id="southEast.3" depart="82.00" departLane="southJunction_0" departPos="5.10" departSpeed="7.68" departDelay="0.25" arrival="213.00" arrivalLane="junctionEast_0" arrivalPos="492.80" arrivalSpeed="7.54" duration="131.00" routeLength="989.53" waitingTime="0.00" waitingCount="0" stopTime="0.00" timeLoss="11.79" rerouteNo="0" devices="tripinfo_southEast.3 ssm_southEast.3" vType="carCustom" speedFactor="1.02" vaporized=""/>
    <tripinfo id="westEastTop.15" depart="88.00" departLane="westJunction_1" departPos="5.10" departSpeed="7.16" departDelay="0.20" arrival="218.00" arrivalLane="junctionEast_1" arrivalPos="492.80" arrivalSpeed="7.25" duration="130.00" routeLength="994.90" waitingTime="0.00" waitingCount="0" stopTime="0.00" timeLoss="10.23" rerouteNo="0" devices="tripinfo_westEastTop.15 ssm_westEastTop.15" vType="carCustom" speedFactor="0.79" vaporized=""/>
    <tripinfo id="westEastBottom0.8" depart="90.00" departLane="westJunction_0" departPos="5.10" departSpeed="7.58" departDelay="0.52" arrival="219.00" arrivalLane="junctionEast_0" arrivalPos="492.80" arrivalSpeed="7.47" duration="129.00" routeLength="994.90" waitingTime="0.00" waitingCount="0" stopTime="0.00" timeLoss="8.97" rerouteNo="0" devices="tripinfo_westEastBottom0.8 ssm_westEastBottom0.8" vType="carCustom" speedFactor="0.94" vaporized=""/>
    <tripinfo id="westEastTop.16" depart="91.00" departLane="westJunction_1" departPos="5.10" departSpeed="7.15" departDelay="1.32" arrival="221.00" arrivalLane="junctionEast_0" arrivalPos="492.80" arrivalSpeed="8.33" duration="130.00" routeLength="994.90" waitingTime="0.00" waitingCount="0" stopTime="0.00" timeLoss="10.04" rerouteNo="0" devices="tripinfo_westEastTop.16 ssm_westEastTop.16" vType="carCustom" speedFactor="0.90" vaporized=""/>
    <tripinfo id="westEastTop.17" depart="93.00" departLane="westJunction_1" departPos="5.10" departSpeed="7.59" departDelay="3.14" arrival="224.00" arrivalLane="junctionEast_0" arrivalPos="492.80" arrivalSpeed="7.55" duration="131.00" routeLength="994.90" waitingTime="0.00" waitingCount="0" stopTime="0.00" timeLoss="11.19" rerouteNo="0" devices="tripinfo_westEastTop.17 ssm_westEastTop.17" vType="carCustom" speedFactor="0.94" vaporized=""/>
    <tripinfo id="southEast.4" depart="94.00" departLane="southJunction_0" departPos="5.10" departSpeed="7.35" departDelay="0.37" arrival="227.00" arrivalLane="junctionEast_0" arrivalPos="492.80" arrivalSpeed="7.46" duration="133.00" routeLength="989.53" waitingTime="0.00" waitingCount="0" stopTime="0.00" timeLoss="13.27" rerouteNo="0" devices="tripinfo_southEast.4 ssm_southEast.4" vType="carCustom" speedFactor="0.97" vaporized=""/>
    <tripinfo id="westEastBottom0.9" depart="99.00" departLane="westJunction_0" departPos="5.10" departSpeed="8.29" departDelay="0.37" arrival="229.00" arrivalLane="junctionEast_0" arrivalPos="492.80" arrivalSpeed="8.01" duration="130.00" routeLength="994.90" waitingTime="0.00" waitingCount="0" stopTime="0.00" timeLoss="10.14" rerouteNo="0" devices="tripinfo_westEastBottom0.9 ssm_westEastBottom0.9" vType="carCustom" speedFactor="1.03" vaporized=""/>
    <tripinfo id="southNorth.8" depart="97.00" departLane="southJunction_1" departPos="5.10" departSpeed="7.07" departDelay="0.56" arrival="233.00" arrivalLane="junctionNorth_0" arrivalPos="492.80" arrivalSpeed="8.26" duration="136.00" routeLength="995.01" waitingTime="4.00" waitingCount="1" stopTime="0.00" timeLoss="16.48" rerouteNo="0" devices="tripinfo_southNorth.8 ssm_southNorth.8" vType="carCustom" speedFactor="1.06" vaporized=""/>
    <tripinfo id="westEastTop.18" depart="101.00" departLane="westJunction_1" departPos="5.10" departSpeed="7.69" departDelay="0.25" arrival="239.00" arrivalLane="junctionEast_0" arrivalPos="492.80" arrivalSpeed="7.73" duration="138.00" routeLength="994.90" waitingTime="3.00" waitingCount="1" stopTime="0.00" timeLoss="17.96" rerouteNo="0" devices="tripinfo_westEastTop.18 ssm_westEastTop.18" vType="carCustom" speedFactor="1.01" vaporized=""/>
    <tripinfo id="westEastTop.19" depart="113.00" departLane="westJunction_1" departPos="5.10" departSpeed="8.00" departDelay="0.13" arrival="243.00" arrivalLane="junctionEast_0" arrivalPos="492.80" arrivalSpeed="7.29" duration="130.00" routeLength="994.90" waitingTime="0.00" waitingCount="0" stopTime="0.00" timeLoss="10.23" rerouteNo="0" devices="tripinfo_westEastTop.19 ssm_westEastTop.19" vType="carCustom" speedFactor="0.99" vaporized=""/>
    <tripinfo id="westEastTop.20" depart="116.00" departLane="westJunction_1" departPos="5.10" departSpeed="8.21" departDelay="1.84" arrival="246.00" arrivalLane="junctionEast_0" arrivalPos="492.80" arrivalSpeed="7.44" duration="130.00" routeLength="994.90" waitingTime="0.00" waitingCount="0" stopTime="0.00" timeLoss="9.94" rerouteNo="0" devices="tripinfo_westEastTop.20 ssm_westEastTop.20" vType="carCustom" speedFactor="1.00" vaporized=""/>
    <tripinfo id="southEast.5" depart="119.00" departLane="southJunction_0" departPos="5.10" departSpeed="7.48" departDelay="0.79" arrival="253.00" arrivalLane="junctionEast_0" arrivalPos="492.80" arrivalSpeed="8.12" duration="134.00" routeLength="989.53" waitingTime="0.00" waitingCount="0" stopTime="0.00" timeLoss="14.56" rerouteNo="0" devices="tripinfo_southEast.5 ssm_southEast.5" vType="carCustom" speedFactor="0.91" vaporized=""/>
    <tripinfo id="southEast.6" depart="121.00" departLane="southJunction_0" departPos="5.10" departSpeed="7.94" departDelay="0.54" arrival="255.00" arrivalLane="junctionEast_1" arrivalPos="492.80" arrivalSpeed="7.35" duration="134.00" routeLength="989.53" waitingTime="0.00" waitingCount="0" stopTime="0.00" timeLoss="14.84" rerouteNo="0" devices="tripinfo_southEast.6 ssm_southEast.6" vType="carCustom" speedFactor="1.03" vaporized=""/>
    <tripinfo id="westEastTop.21" depart="128.00" departLane="westJunction_1" departPos="5.10" departSpeed="8.33" departDelay="0.65" arrival="258.00" arrivalLane="junctionEast_0" arrivalPos="492.80" arrivalSpeed="7.09" duration="130.00" routeLength="994.90" waitingTime="0.00" waitingCount="0" stopTime="0.00" timeLoss="9.92" rerouteNo="0" devices="tripinfo_westEastTop.21 ssm_westEastTop.21" vType="carCustom" speedFactor="1.02" vaporized=""/>
    <tripinfo id="westEastTop.22" depart="130.00" departLane="westJunction_1" departPos="5.10" departSpeed="7.16" departDelay="0.88" arrival="260.00" arrivalLane="junctionEast_1" arrivalPos="492.80" arrivalSpeed="7.67" duration="130.00" routeLength="994.90" waitingTime="0.00" waitingCount="0" stopTime="0.00" timeLoss="10.02" rerouteNo="0" devices="tripinfo_westEastTop.22 ssm_westEastTop.22" vType="carCustom" speedFactor="1.01" vaporized=""/>
    <tripinfo id="westEastBottom0.10" depart="130.00" departLane="westJunction_0" departPos="5.10" departSpeed="7.78" departDelay="0.31" arrival="260.00" arrivalLane="junctionEast_0" arrivalPos="492.80" arrivalSpeed="7.88" duration="130.00" routeLength="994.90" waitingTime="0.00" waitingCount="0" stopTime="0.00" timeLoss="10.13" rerouteNo="0" devices="tripinfo_westEastBottom0.10 ssm_westEastBottom0.10" vType="carCustom" speedFactor="1.01" vaporized=""/>
    <tripinfo id="southEast.7" depart="126.00" departLane="southJunction_0" departPos="5.10" departSpeed="7.99" departDelay="0.31" arrival="263.00" arrivalLane="junctionEast_0" arrivalPos="492.80" arrivalSpeed="7.42" duration="137.00" routeLength="989.53" waitingTime="2.00" waitingCount="1" stopTime="0.00" timeLoss="17.15" rerouteNo="0" devices="tripinfo_southEast.7 ssm_southEast.7" vType="carCustom" speedFactor="0.78" vaporized=""/>
    <tripinfo id="westEastTop.23" depart="134.00" departLane="westJunction_1" departPos="5.10" departSpeed="7.45" departDelay="0.16" arrival="265.00" arrivalLane="junctionEast_1" arrivalPos="492.80" arrivalSpeed="7.10" duration="131.00" routeLength="994.90" waitingTime="0.00" waitingCount="0" stopTime="0.00" timeLoss="10.92" rerouteNo="0" devices="tripinfo_westEastTop.23 ssm_westEastTop.23" vType="carCustom" speedFactor="1.14" vaporized=""/>
    <tripinfo id="westEastTop.24" depart="137.00" departLane="westJunction_1" departPos="5.10" departSpeed="8.27" departDelay="0.20" arrival="267.00" arrivalLane="junctionEast_0" arrivalPos="492.80" arrivalSpeed="8.15" duration="130.00" routeLength="994.90" waitingTime="0.00" waitingCount="0" stopTime="0.00" timeLoss="10.01" rerouteNo="0" devices="tripinfo_westEastTop.24 ssm_westEastTop.24" vType="carCustom" speedFactor="0.90" vaporized=""/>
    <tripinfo id="westEastTop.25" depart="140.00" departLane="westJunction_1" departPos="5.10" departSpeed="7.04" departDelay="1.80" arrival="270.00" arrivalLane="junctionEast_0" arrivalPos="492.80" arrivalSpeed="7.18" duration="130.00" routeLength="994.90" waitingTime="0.00" waitingCount="0" stopTime="0.00" timeLoss="9.89" rerouteNo="0" devices="tripinfo_westEastTop.25 ssm_westEastTop.25" vType="carCustom" speedFactor="1.11" vaporized=""/>
    <tripinfo id="southEast.8" depart="138.00" departLane="southJunction_0" departPos="5.10" departSpeed="8.19" departDelay="0.99" arrival="272.00" arrivalLane="junctionEast_0" arrivalPos="492.80" arrivalSpeed="7.51" duration="134.00" routeLength="989.53" waitingTime="1.00" waitingCount="1" stopTime="0.00" timeLoss="14.83" rerouteNo="0" devices="tripinfo_southEast.8 ssm_southEast.8" vType="carCustom" speedFactor="0.99" vaporized=""/>
    <tripinfo id="westEastTop.26" depart="143.00" departLane="westJunction_1" departPos="5.10" departSpeed="7.92" departDelay="1.49" arrival="278.00" arrivalLane="junctionEast_1" arrivalPos="492.80" arrivalSpeed="7.09" duration="135.00" routeLength="994.90" waitingTime="1.00" waitingCount="1" stopTime="0.00" timeLoss="15.22" rerouteNo="0" devices="tripinfo_westEastTop.26 ssm_westEastTop.26" vType="carCustom" speedFactor="1.10" vaporized=""/>
    <tripinfo id="westEastBottom0.11" depart="147.00" departLane="westJunction_0" departPos="5.10" departSpeed="7.93" departDelay="0.90" arrival="278.00" arrivalLane="junctionEast_0" arrivalPos="492.80" arrivalSpeed="7.94" duration="131.00" routeLength="994.90" waitingTime="0.00" waitingCount="0" stopTime="0.00" timeLoss="10.99" rerouteNo="0" devices="tripinfo_westEastBottom0.11 ssm_westEastBottom0.11" vType="carCustom" speedFactor="0.88" vaporized=""/>
    <tripinfo id="westEastTop.27" depart="145.00" departLane="westJunction_1" departPos="5.10" departSpeed="7.47" departDelay="1.93" arrival="281.00" arrivalLane="junctionEast_1" arrivalPos="492.80" arrivalSpeed="8.31" duration="136.00" routeLength="994.90" waitingTime="0.00" waitingCount="0" stopTime="0.00" timeLoss="15.65" rerouteNo="0" devices="tripinfo_westEastTop.27 ssm_westEastTop.27" vType="carCustom" speedFactor="0.86" vaporized=""/>
    <tripinfo id="westEastBottom0.12" depart="150.00" departLane="westJunction_0" departPos="5.10" departSpeed="7.08" departDelay="1.14" arrival="281.00" arrivalLane="junctionEast_0" arrivalPos="492.80" arrivalSpeed="7.98" duration="131.00" routeLength="994.90" waitingTime="0.00" waitingCount="0" stopTime="0.00" timeLoss="11.12" rerouteNo="0" devices="tripinfo_westEastBottom0.12 ssm_westEastBottom0.12" vType="carCustom" speedFactor="0.96" vaporized=""/>
    <tripinfo id="westEastTop.28" depart="147.00" departLane="westJunction_1" departPos="5.10" departSpeed="7.23" departDelay="2.79" arrival="283.00" arrivalLane="junctionEast_1" arrivalPos="492.80" arrivalSpeed="8.12" duration="136.00" routeLength="994.90" waitingTime="0.00" waitingCount="0" stopTime="0.00" timeLoss="16.31" rerouteNo="0" devices="tripinfo_westEastTop.28 ssm_westEastTop.28" vType="carCustom" speedFactor="1.03" vaporized=""/>
    <tripinfo id="southEast.9" depart="147.00" departLane="southJunction_0" departPos="5.10" departSpeed="7.31" departDelay="0.11" arrival="283.00" arrivalLane="junctionEast_0" arrivalPos="492.80" arrivalSpeed="7.77" duration="136.00" routeLength="989.53" waitingTime="3.00" waitingCount="1" stopTime="0.00" timeLoss="16.88" rerouteNo="0" devices="tripinfo_southEast.9 ssm_southEast.9" vType="carCustom" speedFactor="1.02" vaporized=""/>
    <tripinfo id="southNorth.9" depart="155.00" departLane="southJunction_1" departPos="5.10" departSpeed="8.31" departDelay="0.82" arrival="288.00" arrivalLane="junctionNorth_0" arrivalPos="492.80" arrivalSpeed="7.39" duration="133.00" routeLength="995.01" waitingTime="1.00" waitingCount="1" stopTime="0.00" timeLoss="12.91" rerouteNo="0" devices="tripinfo_southNorth.9 ssm_southNorth.9" vType="carCustom" speedFactor="1.06" vaporized=""/>
    <tripinfo id="southEast.10" depart="159.00" departLane="southJunction_0" departPos="5.10" departSpeed="8.26" departDelay="0.13" arrival="290.00" arrivalLane="junctionEast_0" arrivalPos="492.80" arrivalSpeed="7.64" duration="131.00" routeLength="989.53" waitingTime="0.00" waitingCount="0" stopTime="0.00" timeLoss="11.01" rerouteNo="0" devices="tripinfo_southEast.10 ssm_southEast.10" vType="carCustom" speedFactor="0.87" vaporized=""/>