<?xml version="1.0" encoding="UTF-8"?>

<!-- generated on 2025-04-29 05:39:14 by Eclipse SUMO sumo Version 1.20.0
<configuration xmlns:xsi="http://www.w3.org/2001/XMLSchema-instance" xsi:noNamespaceSchemaLocation="http://sumo.dlr.de/xsd/sumoConfiguration.xsd">

    <input>
        <net-file value="nets/2lane_unprotected_right/2lane_unprotected_right.net.xml"/>
        <route-files value="nets/2lane_unprotected_right/2lane_unprotected_right.rou.xml"/>
    </input>

    <output>
        <tripinfo-output value="traces/transs50f1_s50_f0.5_random/0074_tripinfo.xml"/>
        <collision-output value="traces/transs50f1_s50_f0.5_random/0074_collisions.xml"/>
        <statistic-output value="traces/transs50f1_s50_f0.5_random/0074_statistics.xml"/>
    </output>

    <processing>
        <collision.action value="teleport"/>
        <collision.check-junctions value="true"/>
        <time-to-teleport value="-1"/>
        <waiting-time-memory value="1000"/>
        <max-depart-delay value="-1"/>
        <default.speeddev value="0.1"/>
    </processing>

    <report>
        <no-warnings value="true"/>
    </report>

    <ssm_device>
        <device.ssm.probability value="1.0"/>
        <device.ssm.measures value="BR"/>
        <device.ssm.file value="/Users/finn/Code/CausalKnowledgeTransfer-4-SafeRL/traces/transs50f1_s50_f0.5_random/0074_ssm.xml"/>
    </ssm_device>

    <traci_server>
        <remote-port value="63326"/>
    </traci_server>

    <random_number>
        <random value="true"/>
    </random_number>

</configuration>
-->

<tripinfos xmlns:xsi="http://www.w3.org/2001/XMLSchema-instance" xsi:noNamespaceSchemaLocation="http://sumo.dlr.de/xsd/tripinfo_file.xsd">
    <tripinfo id="westEastBottom0.0" depart="1.00" departLane="westJunction_0" departPos="5.10" departSpeed="13.89" departDelay="0.08" arrival="76.00" arrivalLane="junctionEast_0" arrivalPos="492.80" arrivalSpeed="13.67" duration="75.00" routeLength="994.90" waitingTime="0.00" waitingCount="0" stopTime="0.00" timeLoss="3.23" rerouteNo="0" devices="tripinfo_westEastBottom0.0 ssm_westEastBottom0.0" vType="carCustom" speedFactor="0.93" vaporized=""/>
    <tripinfo id="westEastTop.0" depart="5.00" departLane="westJunction_1" departPos="5.10" departSpeed="13.89" departDelay="0.74" arrival="84.00" arrivalLane="junctionEast_0" arrivalPos="492.80" arrivalSpeed="13.67" duration="79.00" routeLength="994.90" waitingTime="0.00" waitingCount="0" stopTime="0.00" timeLoss="7.21" rerouteNo="0" devices="tripinfo_westEastTop.0 ssm_westEastTop.0" vType="carCustom" speedFactor="0.99" vaporized=""/>
    <tripinfo id="westEastBottom0.2" depart="5.00" departLane="westJunction_0" departPos="5.10" departSpeed="9.96" departDelay="1.80" arrival="91.00" arrivalLane="junctionEast_0" arrivalPos="492.80" arrivalSpeed="13.28" duration="86.00" routeLength="994.90" waitingTime="0.00" waitingCount="0" stopTime="0.00" timeLoss="13.72" rerouteNo="0" devices="tripinfo_westEastBottom0.2 ssm_westEastBottom0.2" vType="carCustom" speedFactor="0.97" vaporized=""/>
    <tripinfo id="westEastBottom0.1" depart="3.00" departLane="westJunction_0" departPos="5.10" departSpeed="13.37" departDelay="0.13" arrival="97.00" arrivalLane="junctionEast_0" arrivalPos="492.80" arrivalSpeed="13.15" duration="94.00" routeLength="994.90" waitingTime="0.00" waitingCount="0" stopTime="0.00" timeLoss="21.61" rerouteNo="0" devices="tripinfo_westEastBottom0.1 ssm_westEastBottom0.1" vType="carCustom" speedFactor="0.99" vaporized=""/>
    <tripinfo id="westEastTop.1" depart="9.00" departLane="westJunction_1" departPos="5.10" departSpeed="5.08" departDelay="0.10" arrival="97.00" arrivalLane="junctionEast_1" arrivalPos="492.80" arrivalSpeed="13.42" duration="88.00" routeLength="994.90" waitingTime="0.00" waitingCount="0" stopTime="0.00" timeLoss="15.93" rerouteNo="0" devices="tripinfo_westEastTop.1 ssm_westEastTop.1" vType="carCustom" speedFactor="0.84" vaporized=""/>
    <tripinfo id="southEast.0" depart="8.00" departLane="southJunction_0" departPos="5.10" departSpeed="13.89" departDelay="0.49" arrival="103.00" arrivalLane="junctionEast_0" arrivalPos="492.80" arrivalSpeed="13.81" duration="95.00" routeLength="989.53" waitingTime="0.00" waitingCount="0" stopTime="0.00" timeLoss="23.22" rerouteNo="0" devices="tripinfo_southEast.0 ssm_southEast.0" vType="carCustom" speedFactor="1.02" vaporized=""/>
    <tripinfo id="westEastTop.2" depart="12.00" departLane="westJunction_1" departPos="5.10" departSpeed="5.23" departDelay="3.04" arrival="107.00" arrivalLane="junctionEast_0" arrivalPos="492.80" arrivalSpeed="13.79" duration="95.00" routeLength="994.90" waitingTime="0.00" waitingCount="0" stopTime="0.00" timeLoss="22.60" rerouteNo="0" devices="tripinfo_westEastTop.2 ssm_westEastTop.2" vType="carCustom" speedFactor="1.00" vaporized=""/>
    <tripinfo id="southEast.2" depart="72.00" departLane="southJunction_0" departPos="5.10" departSpeed="13.65" departDelay="0.72" arrival="112.00" arrivalLane="junctionEast_0" arrivalPos="492.80" arrivalSpeed="6.76" duration="40.00" routeLength="989.53" waitingTime="0.00" waitingCount="0" stopTime="0.00" timeLoss="3.48" rerouteNo="0" devices="tripinfo_southEast.2 ssm_southEast.2" vType="carCustom" speedFactor="1.00" vaporized="teleport"/>
    <tripinfo id="westEastTop.3" depart="16.00" departLane="westJunction_1" departPos="5.10" departSpeed="4.73" departDelay="4.40" arrival="114.00" arrivalLane="junctionEast_0" arrivalPos="492.80" arrivalSpeed="13.87" duration="98.00" routeLength="994.90" waitingTime="0.00" waitingCount="0" stopTime="0.00" timeLoss="25.77" rerouteNo="0" devices="tripinfo_westEastTop.3 ssm_westEastTop.3" vType="carCustom" speedFactor="1.12" vaporized=""/>
    <tripinfo id="westEastBottom0.3" depart="37.00" departLane="westJunction_0" departPos="5.10" departSpeed="12.16" departDelay="0.24" arrival="114.00" arrivalLane="junctionEast_1" arrivalPos="492.80" arrivalSpeed="13.21" duration="77.00" routeLength="994.90" waitingTime="0.00" waitingCount="0" stopTime="0.00" timeLoss="4.74" rerouteNo="0" devices="tripinfo_westEastBottom0.3 ssm_westEastBottom0.3" vType="carCustom" speedFactor="0.93" vaporized=""/>
    <tripinfo id="southNorth.0" depart="10.00" departLane="southJunction_1" departPos="5.10" departSpeed="13.89" departDelay="0.91" arrival="119.00" arrivalLane="junctionNorth_0" arrivalPos="492.80" arrivalSpeed="13.40" duration="109.00" routeLength="995.01" waitingTime="27.00" waitingCount="1" stopTime="0.00" timeLoss="37.35" rerouteNo="0" devices="tripinfo_southNorth.0 ssm_southNorth.0" vType="carCustom" speedFactor="1.03" vaporized=""/>
    <tripinfo id="southEast.1" depart="42.00" departLane="southJunction_0" departPos="5.10" departSpeed="12.23" departDelay="0.68" arrival="122.00" arrivalLane="junctionEast_0" arrivalPos="492.80" arrivalSpeed="13.33" duration="80.00" routeLength="989.53" waitingTime="0.00" waitingCount="0" stopTime="0.00" timeLoss="7.51" rerouteNo="0" devices="tripinfo_southEast.1 ssm_southEast.1" vType="carCustom" speedFactor="0.93" vaporized=""/>
    <tripinfo id="westEastTop.4" depart="20.00" departLane="westJunction_1" departPos="5.10" departSpeed="3.58" departDelay="3.97" arrival="129.00" arrivalLane="junctionEast_0" arrivalPos="492.80" arrivalSpeed="12.83" duration="109.00" routeLength="994.90" waitingTime="0.00" waitingCount="0" stopTime="0.00" timeLoss="37.16" rerouteNo="0" devices="tripinfo_westEastTop.4 ssm_westEastTop.4" vType="carCustom" speedFactor="1.03" vaporized=""/>
    <tripinfo id="westEastTop.5" depart="24.00" departLane="westJunction_1" departPos="5.10" departSpeed="3.05" departDelay="4.60" arrival="131.00" arrivalLane="junctionEast_1" arrivalPos="492.80" arrivalSpeed="12.90" duration="107.00" routeLength="994.90" waitingTime="0.00" waitingCount="0" stopTime="0.00" timeLoss="34.78" rerouteNo="0" devices="tripinfo_westEastTop.5 ssm_westEastTop.5" vType="carCustom" speedFactor="0.89" vaporized=""/>
    <tripinfo id="westEastBottom0.4" depart="39.00" departLane="westJunction_0" departPos="5.10" departSpeed="12.83" departDelay="2.08" arrival="136.00" arrivalLane="junctionEast_0" arrivalPos="492.80" arrivalSpeed="12.90" duration="97.00" routeLength="994.90" waitingTime="0.00" waitingCount="0" stopTime="0.00" timeLoss="24.86" rerouteNo="0" devices="tripinfo_westEastBottom0.4 ssm_westEastBottom0.4" vType="carCustom" speedFactor="0.88" vaporized=""/>
    <tripinfo id="southNorth.1" depart="23.00" departLane="southJunction_1" departPos="5.10" departSpeed="13.54" departDelay="0.86" arrival="139.00" arrivalLane="junctionNorth_0" arrivalPos="492.80" arrivalSpeed="13.09" duration="116.00" routeLength="995.01" waitingTime="25.00" waitingCount="2" stopTime="0.00" timeLoss="43.86" rerouteNo="0" devices="tripinfo_southNorth.1 ssm_southNorth.1" vType="carCustom" speedFactor="1.05" vaporized=""/>
    <tripinfo id="westEastTop.6" depart="30.00" departLane="westJunction_1" departPos="5.10" departSpeed="3.79" departDelay="0.43" arrival="139.00" arrivalLane="junctionEast_0" arrivalPos="492.80" arrivalSpeed="13.82" duration="109.00" routeLength="994.90" waitingTime="0.00" waitingCount="0" stopTime="0.00" timeLoss="36.90" rerouteNo="0" devices="tripinfo_westEastTop.6 ssm_westEastTop.6" vType="carCustom" speedFactor="1.06" vaporized=""/>
    <tripinfo id="westEastBottom0.5" depart="49.00" departLane="westJunction_0" departPos="5.10" departSpeed="9.81" departDelay="0.73" arrival="144.00" arrivalLane="junctionEast_0" arrivalPos="492.80" arrivalSpeed="13.40" duration="95.00" routeLength="994.90" waitingTime="0.00" waitingCount="0" stopTime="0.00" timeLoss="22.56" rerouteNo="0" devices="tripinfo_westEastBottom0.5 ssm_westEastBottom0.5" vType="carCustom" speedFactor="1.01" vaporized=""/>
    <tripinfo id="westEastTop.7" depart="34.00" departLane="westJunction_1" departPos="5.10" departSpeed="4.06" departDelay="1.17" arrival="147.00" arrivalLane="junctionEast_0" arrivalPos="492.80" arrivalSpeed="12.68" duration="113.00" routeLength="994.90" waitingTime="0.00" waitingCount="0" stopTime="0.00" timeLoss="40.90" rerouteNo="0" devices="tripinfo_westEastTop.7 ssm_westEastTop.7" vType="carCustom" speedFactor="1.03" vaporized=""/>
    <tripinfo id="westEastBottom0.6" depart="61.00" departLane="westJunction_0" departPos="5.10" departSpeed="10.83" departDelay="0.11" arrival="150.00" arrivalLane="junctionEast_0" arrivalPos="492.80" arrivalSpeed="13.80" duration="89.00" routeLength="994.90" waitingTime="0.00" waitingCount="0" stopTime="0.00" timeLoss="17.22" rerouteNo="0" devices="tripinfo_westEastBottom0.6 ssm_westEastBottom0.6" vType="carCustom" speedFactor="1.01" vaporized=""/>
    <tripinfo id="southNorth.2" depart="27.00" departLane="southJunction_1" departPos="5.10" departSpeed="13.21" departDelay="0.43" arrival="154.00" arrivalLane="junctionNorth_0" arrivalPos="492.80" arrivalSpeed="13.48" duration="127.00" routeLength="995.01" waitingTime="21.00" waitingCount="3" stopTime="0.00" timeLoss="54.67" rerouteNo="0" devices="tripinfo_southNorth.2 ssm_southNorth.2" vType="carCustom" speedFactor="0.97" vaporized=""/>
    <tripinfo id="westEastTop.8" depart="39.00" departLane="westJunction_1" departPos="5.10" departSpeed="3.39" departDelay="4.02" arrival="155.00" arrivalLane="junctionEast_0" arrivalPos="492.80" arrivalSpeed="12.95" duration="116.00" routeLength="994.90" waitingTime="0.00" waitingCount="0" stopTime="0.00" timeLoss="43.72" rerouteNo="0" devices="tripinfo_westEastTop.8 ssm_westEastTop.8" vType="carCustom" speedFactor="0.99" vaporized=""/>
    <tripinfo id="westEastBottom0.7" depart="65.00" departLane="westJunction_0" departPos="5.10" departSpeed="13.69" departDelay="0.98" arrival="159.00" arrivalLane="junctionEast_0" arrivalPos="492.80" arrivalSpeed="13.05" duration="94.00" routeLength="994.90" waitingTime="0.00" waitingCount="0" stopTime="0.00" timeLoss="22.33" rerouteNo="0" devices="tripinfo_westEastBottom0.7 ssm_westEastBottom0.7" vType="carCustom" speedFactor="1.14" vaporized=""/>
    <tripinfo id="westEastTop.9" depart="43.00" departLane="westJunction_1" departPos="5.10" departSpeed="3.26" departDelay="1.72" arrival="162.00" arrivalLane="junctionEast_0" arrivalPos="492.80" arrivalSpeed="12.67" duration="119.00" routeLength="994.90" waitingTime="0.00" waitingCount="0" stopTime="0.00" timeLoss="46.76" rerouteNo="0" devices="tripinfo_westEastTop.9 ssm_westEastTop.9" vType="carCustom" speedFactor="1.07" vaporized=""/>
    <tripinfo id="southNorth.3" depart="29.00" departLane="southJunction_1" departPos="5.10" departSpeed="10.38" departDelay="1.05" arrival="164.00" arrivalLane="junctionNorth_0" arrivalPos="492.80" arrivalSpeed="13.28" duration="135.00" routeLength="995.01" waitingTime="22.00" waitingCount="3" stopTime="0.00" timeLoss="63.21" rerouteNo="0" devices="tripinfo_southNorth.3 ssm_southNorth.3" vType="carCustom" speedFactor="0.90" vaporized=""/>
    <tripinfo id="westEastBottom0.8" depart="69.00" departLane="westJunction_0" departPos="5.10" departSpeed="8.96" departDelay="0.32" arrival="166.00" arrivalLane="junctionEast_0" arrivalPos="492.80" arrivalSpeed="12.83" duration="97.00" routeLength="994.90" waitingTime="0.00" waitingCount="0" stopTime="0.00" timeLoss="25.04" rerouteNo="0" devices="tripinfo_westEastBottom0.8 ssm_westEastBottom0.8" vType="carCustom" speedFactor="1.09" vaporized=""/>
    <tripinfo id="westEastTop.10" depart="48.00" departLane="westJunction_1" departPos="5.10" departSpeed="3.39" departDelay="4.45" arrival="170.00" arrivalLane="junctionEast_0" arrivalPos="492.80" arrivalSpeed="13.60" duration="122.00" routeLength="994.90" waitingTime="1.00" waitingCount="1" stopTime="0.00" timeLoss="49.73" rerouteNo="0" devices="tripinfo_westEastTop.10 ssm_westEastTop.10" vType="carCustom" speedFactor="1.04" vaporized=""/>
    <tripinfo id="southEast.3" depart="82.00" departLane="southJunction_0" departPos="5.10" departSpeed="13.24" departDelay="1.00" arrival="173.00" arrivalLane="junctionEast_0" arrivalPos="492.80" arrivalSpeed="13.53" duration="91.00" routeLength="989.53" waitingTime="0.00" waitingCount="0" stopTime="0.00" timeLoss="18.53" rerouteNo="0" devices="tripinfo_southEast.3 ssm_southEast.3" vType="carCustom" speedFactor="1.09" vaporized=""/>
    <tripinfo id="southNorth.4" depart="31.00" departLane="southJunction_1" departPos="5.10" departSpeed="6.97" departDelay="1.31" arrival="177.00" arrivalLane="junctionNorth_0" arrivalPos="492.80" arrivalSpeed="13.62" duration="146.00" routeLength="995.01" waitingTime="21.00" waitingCount="4" stopTime="0.00" timeLoss="73.50" rerouteNo="0" devices="tripinfo_southNorth.4 ssm_southNorth.4" vType="carCustom" speedFactor="1.15" vaporized=""/>
    <tripinfo id="westEastTop.11" depart="53.00" departLane="westJunction_1" departPos="5.10" departSpeed="2.79" departDelay="8.39" arrival="178.00" arrivalLane="junctionEast_0" arrivalPos="492.80" arrivalSpeed="12.89" duration="125.00" routeLength="994.90" waitingTime="0.00" waitingCount="0" stopTime="0.00" timeLoss="52.89" rerouteNo="0" devices="tripinfo_westEastTop.11 ssm_westEastTop.11" vType="carCustom" speedFactor="1.09" vaporized=""/>
    <tripinfo id="westEastBottom0.9" depart="92.00" departLane="westJunction_0" departPos="5.10" departSpeed="10.23" departDelay="0.86" arrival="180.00" arrivalLane="junctionEast_1" arrivalPos="492.80" arrivalSpeed="12.66" duration="88.00" routeLength="994.90" waitingTime="0.00" waitingCount="0" stopTime="0.00" timeLoss="15.51" rerouteNo="0" devices="tripinfo_westEastBottom0.9 ssm_westEastBottom0.9" vType="carCustom" speedFactor="0.92" vaporized=""/>
    <tripinfo id="westEastTop.12" depart="58.00" departLane="westJunction_1" departPos="5.10" departSpeed="3.01" departDelay="10.66" arrival="186.00" arrivalLane="junctionEast_1" arrivalPos="492.80" arrivalSpeed="13.60" duration="128.00" routeLength="994.90" waitingTime="0.00" waitingCount="0" stopTime="0.00" timeLoss="56.20" rerouteNo="0" devices="tripinfo_westEastTop.12 ssm_westEastTop.12" vType="carCustom" speedFactor="0.99" vaporized=""/>
    <tripinfo id="southEast.4" depart="89.00" departLane="southJunction_0" departPos="5.10" departSpeed="13.30" departDelay="0.16" arrival="186.00" arrivalLane="junctionEast_0" arrivalPos="492.80" arrivalSpeed="13.58" duration="97.00" routeLength="989.53" waitingTime="0.00" waitingCount="0" stopTime="0.00" timeLoss="24.42" rerouteNo="0" devices="tripinfo_southEast.4 ssm_southEast.4" vType="carCustom" speedFactor="0.98" vaporized=""/>
    <tripinfo id="southNorth.5" depart="38.00" departLane="southJunction_1" departPos="5.10" departSpeed="6.15" departDelay="0.67" arrival="187.00" arrivalLane="junctionNorth_0" arrivalPos="492.80" arrivalSpeed="13.61" duration="149.00" routeLength="995.01" waitingTime="17.00" waitingCount="4" stopTime="0.00" timeLoss="76.50" rerouteNo="0" devices="tripinfo_southNorth.5 ssm_southNorth.5" vType="carCustom" speedFactor="0.98" vaporized=""/>
    <tripinfo id="westEastBottom0.10" depart="101.00" departLane="westJunction_0" departPos="5.10" departSpeed="13.50" departDelay="0.18" arrival="192.00" arrivalLane="junctionEast_0" arrivalPos="492.80" arrivalSpeed="13.86" duration="91.00" routeLength="994.90" waitingTime="0.00" waitingCount="0" stopTime="0.00" timeLoss="19.37" rerouteNo="0" devices="tripinfo_westEastBottom0.10 ssm_westEastBottom0.10" vType="carCustom" speedFactor="1.02" vaporized=""/>
    <tripinfo id="southEast.5" depart="108.00" departLane="southJunction_0" departPos="5.10" departSpeed="12.58" departDelay="0.95" arrival="194.00" arrivalLane="junctionEast_1" arrivalPos="492.80" arrivalSpeed="13.60" duration="86.00" routeLength="989.53" waitingTime="0.00" waitingCount="0" stopTime="0.00" timeLoss="13.19" rerouteNo="0" devices="tripinfo_southEast.5 ssm_southEast.5" vType="carCustom" speedFactor="1.02" vaporized=""/>
    <tripinfo id="southNorth.6" depart="42.00" departLane="southJunction_1" departPos="5.10" departSpeed="5.64" departDelay="0.86" arrival="195.00" arrivalLane="junctionNorth_0" arrivalPos="492.80" arrivalSpeed="13.79" duration="153.00" routeLength="995.01" waitingTime="9.00" waitingCount="3" stopTime="0.00" timeLoss="80.79" rerouteNo="0" devices="tripinfo_southNorth.6 ssm_southNorth.6" vType="carCustom" speedFactor="1.02" vaporized=""/>
    <tripinfo id="southEast.6" depart="114.00" departLane="southJunction_0" departPos="5.10" departSpeed="13.47" departDelay="0.16" arrival="200.00" arrivalLane="junctionEast_0" arrivalPos="492.80" arrivalSpeed="13.27" duration="86.00" routeLength="989.53" waitingTime="0.00" waitingCount="0" stopTime="0.00" timeLoss="13.14" rerouteNo="0" devices="tripinfo_southEast.6 ssm_southEast.6" vType="carCustom" speedFactor="0.93" vaporized=""/>
    <tripinfo id="westEastTop.13" depart="63.00" departLane="westJunction_1" departPos="5.10" departSpeed="3.76" departDelay="8.62" arrival="201.00" arrivalLane="junctionEast_0" arrivalPos="492.80" arrivalSpeed="13.60" duration="138.00" routeLength="994.90" waitingTime="2.00" waitingCount="1" stopTime="0.00" timeLoss="66.23" rerouteNo="0" devices="tripinfo_westEastTop.13 ssm_westEastTop.13" vType="carCustom" speedFactor="1.01" vaporized=""/>
    <tripinfo id="westEastTop.14" depart="68.00" departLane="westJunction_1" departPos="5.10" departSpeed="2.52" departDelay="11.51" arrival="208.00" arrivalLane="junctionEast_1" arrivalPos="492.80" arrivalSpeed="12.95" duration="140.00" routeLength="994.90" waitingTime="0.00" waitingCount="0" stopTime="0.00" timeLoss="68.13" rerouteNo="0" devices="tripinfo_westEastTop.14 ssm_westEastTop.14" vType="carCustom" speedFactor="1.16" vaporized=""/>
    <tripinfo id="westEastBottom0.11" depart="130.00" departLane="westJunction_0" departPos="5.10" departSpeed="12.59" departDelay="0.56" arrival="208.00" arrivalLane="junctionEast_0" arrivalPos="492.80" arrivalSpeed="13.01" duration="78.00" routeLength="994.90" waitingTime="0.00" waitingCount="0" stopTime="0.00" timeLoss="5.87" rerouteNo="0" devices="tripinfo_westEastBottom0.11 ssm_westEastBottom0.11" vType="carCustom" speedFactor="0.94" vaporized=""/>
    <tripinfo id="southNorth.7" depart="45.00" departLane="southJunction_1" departPos="5.10" departSpeed="4.58" departDelay="0.85" arrival="209.00" arrivalLane="junctionNorth_0" arrivalPos="492.80" arrivalSpeed="13.45" duration="164.00" routeLength="995.01" waitingTime="18.00" waitingCount="4" stopTime="0.00" timeLoss="91.47" rerouteNo="0" devices="tripinfo_southNorth.7 ssm_southNorth.7" vType="carCustom" speedFactor="0.92" vaporized=""/>
    <tripinfo id="westEastTop.15" depart="73.00" departLane="westJunction_1" departPos="5.10" departSpeed="2.02" departDelay="14.17" arrival="215.00" arrivalLane="junctionEast_0" arrivalPos="492.80" arrivalSpeed="13.39" duration="142.00" routeLength="994.90" waitingTime="0.00" waitingCount="0" stopTime="0.00" timeLoss="70.13" rerouteNo="0" devices="tripinfo_westEastTop.15 ssm_westEastTop.15" vType="carCustom" speedFactor="1.10" vaporized=""/>
    <tripinfo id="westEastTop.16" depart="78.00" departLane="westJunction_1" departPos="5.10" departSpeed="2.90" departDelay="16.47" arrival="215.00" arrivalLane="junctionEast_1" arrivalPos="492.80" arrivalSpeed="13.26" duration="137.00" routeLength="994.90" waitingTime="0.00" waitingCount="0" stopTime="0.00" timeLoss="65.24" rerouteNo="0" devices="tripinfo_westEastTop.16 ssm_westEastTop.16" vType="carCustom" speedFactor="1.08" vaporized=""/>
    <tripinfo id="southNorth.8" depart="85.00" departLane="southJunction_1" departPos="5.10" departSpeed="9.34" departDelay="0.58" arrival="217.00" arrivalLane="junctionNorth_0" arrivalPos="492.80" arrivalSpeed="13.59" duration="132.00" routeLength="995.01" waitingTime="12.00" waitingCount="2" stopTime="0.00" timeLoss="59.53" rerouteNo="0" devices="tripinfo_southNorth.8 ssm_southNorth.8" vType="carCustom" speedFactor="0.89" vaporized=""/>
    <tripinfo id="westEastTop.18" depart="89.00" departLane="westJunction_1" departPos="5.10" departSpeed="3.18" departDelay="11.46" arrival="223.00" arrivalLane="junctionEast_0" arrivalPos="492.80" arrivalSpeed="13.56" duration="134.00" routeLength="994.90" waitingTime="0.00" waitingCount="0" stopTime="0.00" timeLoss="62.33" rerouteNo="0" devices="tripinfo_westEastTop.18 ssm_westEastTop.18" vType="carCustom" speedFactor="1.15" vaporized=""/>
    <tripinfo id="southEast.7" depart="130.00" departLane="southJunction_0" departPos="5.10" departSpeed="12.55" departDelay="0.94" arrival="223.00" arrivalLane="junctionEast_1" arrivalPos="492.80" arrivalSpeed="12.88" duration="93.00" routeLength="989.53" waitingTime="0.00" waitingCount="0" stopTime="0.00" timeLoss="19.86" rerouteNo="0" devices="tripinfo_southEast.7 ssm_southEast.7" vType="carCustom" speedFactor="0.93" vaporized=""/>
    <tripinfo id="westEastTop.19" depart="93.00" departLane="westJunction_1" departPos="5.10" departSpeed="2.48" departDelay="0.11" arrival="230.00" arrivalLane="junctionEast_1" arrivalPos="492.80" arrivalSpeed="12.82" duration="137.00" routeLength="994.90" waitingTime="0.00" waitingCount="0" stopTime="0.00" timeLoss="65.31" rerouteNo="0" devices="tripinfo_westEastTop.19 ssm_westEastTop.19" vType="carCustom" speedFactor="1.20" vaporized=""/>
    <tripinfo id="westEastTop.17" depart="84.00" departLane="westJunction_1" departPos="5.10" departSpeed="2.76" departDelay="21.28" arrival="231.00" arrivalLane="junctionEast_0" arrivalPos="492.80" arrivalSpeed="13.37" duration="147.00" routeLength="994.90" waitingTime="0.00" waitingCount="0" stopTime="0.00" timeLoss="74.42" rerouteNo="0" devices="tripinfo_westEastTop.17 ssm_westEastTop.17" vType="carCustom" speedFactor="1.04" vaporized=""/>
    <tripinfo id="westEastBottom0.12" depart="155.00" departLane="westJunction_0" departPos="5.10" departSpeed="13.04" departDelay="0.52" arrival="238.00" arrivalLane="junctionEast_0" arrivalPos="492.80" arrivalSpeed="13.13" duration="83.00" routeLength="994.90" waitingTime="0.00" waitingCount="0" stopTime="0.00" timeLoss="10.51" rerouteNo="0" devices="tripinfo_westEastBottom0.12 ssm_westEastBottom0.12" vType="carCustom" speedFactor="0.99" vaporized=""/>
    <tripinfo id="westEastBottom0.13" depart="157.00" departLane="westJunction_0" departPos="5.10" departSpeed="13.70" departDelay="2.31" arrival="242.00" arrivalLane="junctionEast_0" arrivalPos="492.80" arrivalSpeed="13.71" duration="85.00" routeLength="994.90" waitingTime="0.00" waitingCount="0" stopTime="0.00" timeLoss="12.65" rerouteNo="0" devices="tripinfo_westEastBottom0.13 ssm_westEastBottom0.13" vType="carCustom" speedFactor="1.02" vaporized=""/>
    <tripinfo id="westEastTop.22" depart="114.00" departLane="westJunction_1" departPos="5.10" departSpeed="4.45" departDelay="1.91" arrival="246.00" arrivalLane="junctionEast_0" arrivalPos="492.80" arrivalSpeed="12.99" duration="132.00" routeLength="994.90" waitingTime="0.00" waitingCount="0" stopTime="0.00" timeLoss="59.77" rerouteNo="0" devices="tripinfo_westEastTop.22 ssm_westEastTop.22" vType="carCustom" speedFactor="0.96" vaporized=""/>
    <tripinfo id="westEastTop.20" depart="108.00" departLane="westJunction_1" departPos="5.10" departSpeed="4.39" departDelay="0.84" arrival="249.00" arrivalLane="junctionEast_0" arrivalPos="492.80" arrivalSpeed="12.97" duration="141.00" routeLength="994.90" waitingTime="0.00" waitingCount="0" stopTime="0.00" timeLoss="69.07" rerouteNo="0" devices="tripinfo_westEastTop.20 ssm_westEastTop.20" vType="carCustom" speedFactor="1.01" vaporized=""/>
    <tripinfo id="westEastBottom0.19" depart="180.00" departLane="westJunction_0" departPos="5.10" departSpeed="3.98" departDelay="4.29" arrival="251.00" arrivalLane="junctionEast_0" arrivalPos="492.80" arrivalSpeed="6.03" duration="71.00" routeLength="994.90" waitingTime="0.00" waitingCount="0" stopTime="0.00" timeLoss="34.63" rerouteNo="0" devices="tripinfo_westEastBottom0.19 ssm_westEastBottom0.19" vType="carCustom" speedFactor="0.81" vaporized="teleport"/>
    <tripinfo id="westEastTop.23" depart="119.00" departLane="westJunction_1" departPos="5.10" departSpeed="4.03" departDelay="5.21" arrival="254.00" arrivalLane="junctionEast_1" arrivalPos="492.80" arrivalSpeed="13.27" duration="135.00" routeLength="994.90" waitingTime="0.00" waitingCount="0" stopTime="0.00" timeLoss="62.45" rerouteNo="0" devices="tripinfo_westEastTop.23 ssm_westEastTop.23" vType="carCustom" speedFactor="1.03" vaporized=""/>
    <tripinfo id="westEastTop.21" depart="111.00" departLane="westJunction_1" departPos="5.10" departSpeed="5.63" departDelay="3.74" arrival="255.00" arrivalLane="junctionEast_0" arrivalPos="492.80" arrivalSpeed="13.30" duration="144.00" routeLength="994.90" waitingTime="0.00" waitingCount="0" stopTime="0.00" timeLoss="71.54" rerouteNo="0" devices="tripinfo_westEastTop.21 ssm_westEastTop.21" vType="carCustom" speedFactor="0.95" vaporized=""/>
    <tripinfo id="southNorth.9" depart="90.00" departLane="southJunction_1" departPos="5.10" departSpeed="12.81" departDelay="0.96" arrival="259.00" arrivalLane="junctionNorth_0" arrivalPos="492.80" arrivalSpeed="13.81" duration="169.00" routeLength="995.01" waitingTime="48.00" waitingCount="2" stopTime="0.00" timeLoss="96.80" rerouteNo="0" devices="tripinfo_southNorth.9 ssm_southNorth.9" vType="carCustom" speedFactor="1.16" vaporized=""/>
    <tripinfo id="westEastTop.24" depart="124.00" departLane="westJunction_1" departPos="5.10" departSpeed="2.98" departDelay="7.99" arrival="261.00" arrivalLane="junctionEast_1" arrivalPos="492.80" arrivalSpeed="12.62" duration="137.00" routeLength="994.90" waitingTime="0.00" waitingCount="0" stopTime="0.00" timeLoss="64.85" rerouteNo="0" devices="tripinfo_westEastTop.24 ssm_westEastTop.24" vType="carCustom" speedFactor="0.94" vaporized=""/>
    <tripinfo id="westEastBottom0.14" depart="162.00" departLane="westJunction_0" departPos="5.10" departSpeed="7.37" departDelay="0.80" arrival="261.00" arrivalLane="junctionEast_0" arrivalPos="492.80" arrivalSpeed="13.87" duration="99.00" routeLength="994.90" waitingTime="0.00" waitingCount="0" stopTime="0.00" timeLoss="26.78" rerouteNo="0" devices="tripinfo_westEastBottom0.14 ssm_westEastBottom0.14" vType="carCustom" speedFactor="1.01" vaporized=""/>
    <tripinfo id="westEastBottom0.15" depart="165.00" departLane="westJunction_0" departPos="5.10" departSpeed="7.34" departDelay="0.66" arrival="267.00" arrivalLane="junctionEast_0" arrivalPos="492.80" arrivalSpeed="13.16" duration="102.00" routeLength="994.90" waitingTime="0.00" waitingCount="0" stopTime="0.00" timeLoss="30.20" rerouteNo="0" devices="tripinfo_westEastBottom0.15 ssm_westEastBottom0.15" vType="carCustom" speedFactor="0.96" vaporized=""/>
    <tripinfo id="southNorth.10" depart="98.00" departLane="southJunction_1" departPos="5.10" departSpeed="11.11" departDelay="0.49" arrival="269.00" arrivalLane="junctionNorth_0" arrivalPos="492.80" arrivalSpeed="13.58" duration="171.00" routeLength="995.01" waitingTime="47.00" waitingCount="3" stopTime="0.00" timeLoss="98.93" rerouteNo="0" devices="tripinfo_southNorth.10 ssm_southNorth.10" vType="carCustom" speedFactor="1.22" vaporized=""/>
    <tripinfo id="westEastTop.25" depart="128.00" departLane="westJunction_1" departPos="5.10" departSpeed="2.21" departDelay="2.41" arrival="269.00" arrivalLane="junctionEast_1" arrivalPos="492.80" arrivalSpeed="13.59" duration="141.00" routeLength="994.90" waitingTime="1.00" waitingCount="1" stopTime="0.00" timeLoss="68.45" rerouteNo="0" devices="tripinfo_westEastTop.25 ssm_westEastTop.25" vType="carCustom" speedFactor="0.88" vaporized=""/>
    <tripinfo id="westEastBottom0.16" depart="168.00" departLane="westJunction_0" departPos="5.10" departSpeed="4.97" departDelay="1.58" arrival="274.00" arrivalLane="junctionEast_0" arrivalPos="492.80" arrivalSpeed="12.71" duration="106.00" routeLength="994.90" waitingTime="0.00" waitingCount="0" stopTime="0.00" timeLoss="33.88" rerouteNo="0" devices="tripinfo_westEastBottom0.16 ssm_westEastBottom0.16" vType="carCustom" speedFactor="1.00" vaporized=""/>