<?xml version="1.0" encoding="UTF-8"?>

<!-- generated on 2025-04-29 05:41:38 by Eclipse SUMO sumo Version 1.20.0
<configuration xmlns:xsi="http://www.w3.org/2001/XMLSchema-instance" xsi:noNamespaceSchemaLocation="http://sumo.dlr.de/xsd/sumoConfiguration.xsd">

    <input>
        <net-file value="nets/2lane_unprotected_right/2lane_unprotected_right.net.xml"/>
        <route-files value="nets/2lane_unprotected_right/2lane_unprotected_right.rou.xml"/>
    </input>

    <output>
        <tripinfo-output value="traces/transs50f1_s50_f0.5_random/0075_tripinfo.xml"/>
        <collision-output value="traces/transs50f1_s50_f0.5_random/0075_collisions.xml"/>
        <statistic-output value="traces/transs50f1_s50_f0.5_random/0075_statistics.xml"/>
    </output>

    <processing>
        <collision.action value="teleport"/>
        <collision.check-junctions value="true"/>
        <time-to-teleport value="-1"/>
        <waiting-time-memory value="1000"/>
        <max-depart-delay value="-1"/>
        <default.speeddev value="0.1"/>
    </processing>

    <report>
        <no-warnings value="true"/>
    </report>

    <ssm_device>
        <device.ssm.probability value="1.0"/>
        <device.ssm.measures value="BR"/>
        <device.ssm.file value="/Users/finn/Code/CausalKnowledgeTransfer-4-SafeRL/traces/transs50f1_s50_f0.5_random/0075_ssm.xml"/>
    </ssm_device>

    <traci_server>
        <remote-port value="63338"/>
    </traci_server>

    <random_number>
        <random value="true"/>
    </random_number>

</configuration>
-->

<tripinfos xmlns:xsi="http://www.w3.org/2001/XMLSchema-instance" xsi:noNamespaceSchemaLocation="http://sumo.dlr.de/xsd/tripinfo_file.xsd">
    <tripinfo id="westEastBottom0.2" depart="24.00" departLane="westJunction_0" departPos="5.10" departSpeed="6.05" departDelay="0.73" arrival="90.00" arrivalLane="junctionEast_0" arrivalPos="492.80" arrivalSpeed="8.06" duration="66.00" routeLength="994.90" waitingTime="0.00" waitingCount="0" stopTime="0.00" timeLoss="5.14" rerouteNo="0" devices="tripinfo_westEastBottom0.2 ssm_westEastBottom0.2" vType="carCustom" speedFactor="0.89" vaporized="teleport"/>
    <tripinfo id="southEast.0" depart="2.00" departLane="southJunction_0" departPos="5.10" departSpeed="8.33" departDelay="0.07" arrival="131.00" arrivalLane="junctionEast_0" arrivalPos="492.80" arrivalSpeed="7.90" duration="129.00" routeLength="989.53" waitingTime="0.00" waitingCount="0" stopTime="0.00" timeLoss="9.33" rerouteNo="0" devices="tripinfo_southEast.0 ssm_southEast.0" vType="carCustom" speedFactor="1.09" vaporized=""/>
    <tripinfo id="westEastBottom0.0" depart="3.00" departLane="westJunction_0" departPos="5.10" departSpeed="8.33" departDelay="0.81" arrival="132.00" arrivalLane="junctionEast_1" arrivalPos="492.80" arrivalSpeed="7.76" duration="129.00" routeLength="994.90" waitingTime="0.00" waitingCount="0" stopTime="0.00" timeLoss="9.52" rerouteNo="0" devices="tripinfo_westEastBottom0.0 ssm_westEastBottom0.0" vType="carCustom" speedFactor="0.97" vaporized=""/>
    <tripinfo id="westEastBottom0.1" depart="5.00" departLane="westJunction_0" departPos="5.10" departSpeed="7.44" departDelay="1.14" arrival="142.00" arrivalLane="junctionEast_0" arrivalPos="492.80" arrivalSpeed="7.53" duration="137.00" routeLength="994.90" waitingTime="0.00" waitingCount="0" stopTime="0.00" timeLoss="17.27" rerouteNo="0" devices="tripinfo_westEastBottom0.1 ssm_westEastBottom0.1" vType="carCustom" speedFactor="1.11" vaporized=""/>
    <tripinfo id="southEast.5" depart="57.00" departLane="southJunction_0" departPos="5.10" departSpeed="4.78" departDelay="1.74" arrival="142.00" arrivalLane="junctionEast_0" arrivalPos="492.80" arrivalSpeed="3.74" duration="85.00" routeLength="989.53" waitingTime="0.00" waitingCount="0" stopTime="0.00" timeLoss="24.56" rerouteNo="0" devices="tripinfo_southEast.5 ssm_southEast.5" vType="carCustom" speedFactor="0.90" vaporized="teleport"/>
    <tripinfo id="westEastTop.0" depart="11.00" departLane="westJunction_1" departPos="5.10" departSpeed="8.33" departDelay="0.48" arrival="143.00" arrivalLane="junctionEast_0" arrivalPos="492.80" arrivalSpeed="7.41" duration="132.00" routeLength="994.90" waitingTime="0.00" waitingCount="0" stopTime="0.00" timeLoss="11.83" rerouteNo="0" devices="tripinfo_westEastTop.0 ssm_westEastTop.0" vType="carCustom" speedFactor="0.96" vaporized=""/>
    <tripinfo id="southNorth.0" depart="4.00" departLane="southJunction_1" departPos="5.10" departSpeed="8.33" departDelay="0.25" arrival="145.00" arrivalLane="junctionNorth_0" arrivalPos="492.80" arrivalSpeed="8.26" duration="141.00" routeLength="995.01" waitingTime="6.00" waitingCount="1" stopTime="0.00" timeLoss="21.55" rerouteNo="0" devices="tripinfo_southNorth.0 ssm_southNorth.0" vType="carCustom" speedFactor="0.97" vaporized=""/>
    <tripinfo id="westEastTop.1" depart="13.00" departLane="westJunction_1" departPos="5.10" departSpeed="7.44" departDelay="1.83" arrival="153.00" arrivalLane="junctionEast_0" arrivalPos="492.80" arrivalSpeed="7.88" duration="140.00" routeLength="994.90" waitingTime="0.00" waitingCount="0" stopTime="0.00" timeLoss="19.86" rerouteNo="0" devices="tripinfo_westEastTop.1 ssm_westEastTop.1" vType="carCustom" speedFactor="0.83" vaporized=""/>
    <tripinfo id="southEast.1" depart="24.00" departLane="southJunction_0" departPos="5.10" departSpeed="7.62" departDelay="0.95" arrival="155.00" arrivalLane="junctionEast_0" arrivalPos="492.80" arrivalSpeed="7.67" duration="131.00" routeLength="989.53" waitingTime="0.00" waitingCount="0" stopTime="0.00" timeLoss="11.35" rerouteNo="0" devices="tripinfo_southEast.1 ssm_southEast.1" vType="carCustom" speedFactor="1.08" vaporized=""/>
    <tripinfo id="westEastBottom0.3" depart="27.00" departLane="westJunction_0" departPos="5.10" departSpeed="7.44" departDelay="1.63" arrival="164.00" arrivalLane="junctionEast_0" arrivalPos="492.80" arrivalSpeed="7.46" duration="137.00" routeLength="994.90" waitingTime="0.00" waitingCount="0" stopTime="0.00" timeLoss="17.11" rerouteNo="0" devices="tripinfo_westEastBottom0.3 ssm_westEastBottom0.3" vType="carCustom" speedFactor="0.97" vaporized=""/>
    <tripinfo id="westEastTop.2" depart="16.00" departLane="westJunction_1" departPos="5.10" departSpeed="4.54" departDelay="3.98" arrival="167.00" arrivalLane="junctionEast_0" arrivalPos="492.80" arrivalSpeed="7.45" duration="151.00" routeLength="994.90" waitingTime="0.00" waitingCount="0" stopTime="0.00" timeLoss="30.79" rerouteNo="0" devices="tripinfo_westEastTop.2 ssm_westEastTop.2" vType="carCustom" speedFactor="0.83" vaporized=""/>
    <tripinfo id="southNorth.1" depart="9.00" departLane="southJunction_1" departPos="5.10" departSpeed="8.06" departDelay="0.42" arrival="171.00" arrivalLane="junctionNorth_0" arrivalPos="492.80" arrivalSpeed="7.93" duration="162.00" routeLength="995.01" waitingTime="18.00" waitingCount="1" stopTime="0.00" timeLoss="42.36" rerouteNo="0" devices="tripinfo_southNorth.1 ssm_southNorth.1" vType="carCustom" speedFactor="0.79" vaporized=""/>
    <tripinfo id="southEast.2" depart="42.00" departLane="southJunction_0" departPos="5.10" departSpeed="7.37" departDelay="0.43" arrival="175.00" arrivalLane="junctionEast_0" arrivalPos="492.80" arrivalSpeed="7.67" duration="133.00" routeLength="989.53" waitingTime="0.00" waitingCount="0" stopTime="0.00" timeLoss="13.12" rerouteNo="0" devices="tripinfo_southEast.2 ssm_southEast.2" vType="carCustom" speedFactor="0.79" vaporized=""/>
    <tripinfo id="westEastTop.3" depart="20.00" departLane="westJunction_1" departPos="5.10" departSpeed="3.13" departDelay="2.76" arrival="184.00" arrivalLane="junctionEast_0" arrivalPos="492.80" arrivalSpeed="7.94" duration="164.00" routeLength="994.90" waitingTime="4.00" waitingCount="1" stopTime="0.00" timeLoss="43.43" rerouteNo="0" devices="tripinfo_westEastTop.3 ssm_westEastTop.3" vType="carCustom" speedFactor="1.12" vaporized=""/>
    <tripinfo id="southNorth.2" depart="31.00" departLane="southJunction_1" departPos="5.10" departSpeed="6.96" departDelay="0.99" arrival="185.00" arrivalLane="junctionNorth_0" arrivalPos="492.80" arrivalSpeed="7.89" duration="154.00" routeLength="995.01" waitingTime="10.00" waitingCount="2" stopTime="0.00" timeLoss="33.72" rerouteNo="0" devices="tripinfo_southNorth.2 ssm_southNorth.2" vType="carCustom" speedFactor="1.16" vaporized=""/>
    <tripinfo id="westEastTop.4" depart="26.00" departLane="westJunction_1" departPos="5.10" departSpeed="2.34" departDelay="4.81" arrival="186.00" arrivalLane="junctionEast_1" arrivalPos="492.80" arrivalSpeed="7.79" duration="160.00" routeLength="994.90" waitingTime="0.00" waitingCount="0" stopTime="0.00" timeLoss="40.51" rerouteNo="0" devices="tripinfo_westEastTop.4 ssm_westEastTop.4" vType="carCustom" speedFactor="1.11" vaporized=""/>
    <tripinfo id="westEastBottom0.4" depart="30.00" departLane="westJunction_0" departPos="5.10" departSpeed="4.76" departDelay="4.50" arrival="193.00" arrivalLane="junctionEast_0" arrivalPos="492.80" arrivalSpeed="7.31" duration="163.00" routeLength="994.90" waitingTime="0.00" waitingCount="0" stopTime="0.00" timeLoss="42.71" rerouteNo="0" devices="tripinfo_westEastBottom0.4 ssm_westEastBottom0.4" vType="carCustom" speedFactor="1.05" vaporized=""/>
    <tripinfo id="westEastTop.5" depart="32.00" departLane="westJunction_1" departPos="5.10" departSpeed="2.88" departDelay="10.02" arrival="197.00" arrivalLane="junctionEast_0" arrivalPos="492.80" arrivalSpeed="7.64" duration="165.00" routeLength="994.90" waitingTime="0.00" waitingCount="0" stopTime="0.00" timeLoss="44.71" rerouteNo="0" devices="tripinfo_westEastTop.5 ssm_westEastTop.5" vType="carCustom" speedFactor="1.05" vaporized=""/>
    <tripinfo id="southNorth.3" depart="44.00" departLane="southJunction_1" departPos="5.10" departSpeed="8.09" departDelay="0.59" arrival="201.00" arrivalLane="junctionNorth_0" arrivalPos="492.80" arrivalSpeed="8.10" duration="157.00" routeLength="995.01" waitingTime="10.00" waitingCount="2" stopTime="0.00" timeLoss="36.62" rerouteNo="0" devices="tripinfo_southNorth.3 ssm_southNorth.3" vType="carCustom" speedFactor="0.75" vaporized=""/>
    <tripinfo id="southEast.3" depart="49.00" departLane="southJunction_0" departPos="5.10" departSpeed="8.10" departDelay="0.84" arrival="203.00" arrivalLane="junctionEast_0" arrivalPos="492.80" arrivalSpeed="8.06" duration="154.00" routeLength="989.53" waitingTime="0.00" waitingCount="0" stopTime="0.00" timeLoss="33.96" rerouteNo="0" devices="tripinfo_southEast.3 ssm_southEast.3" vType="carCustom" speedFactor="0.99" vaporized=""/>
    <tripinfo id="southEast.4" depart="54.00" departLane="southJunction_0" departPos="5.10" departSpeed="6.01" departDelay="0.27" arrival="207.00" arrivalLane="junctionEast_0" arrivalPos="492.80" arrivalSpeed="7.60" duration="153.00" routeLength="989.53" waitingTime="0.00" waitingCount="0" stopTime="0.00" timeLoss="33.47" rerouteNo="0" devices="tripinfo_southEast.4 ssm_southEast.4" vType="carCustom" speedFactor="0.98" vaporized=""/>
    <tripinfo id="southEast.12" depart="105.00" departLane="southJunction_0" departPos="5.10" departSpeed="3.83" departDelay="0.27" arrival="210.00" arrivalLane="junctionEast_0" arrivalPos="492.80" arrivalSpeed="3.55" duration="105.00" routeLength="989.53" waitingTime="0.00" waitingCount="0" stopTime="0.00" timeLoss="44.78" rerouteNo="0" devices="tripinfo_southEast.12 ssm_southEast.12" vType="carCustom" speedFactor="0.92" vaporized="teleport"/>
    <tripinfo id="southNorth.4" depart="48.00" departLane="southJunction_1" departPos="5.10" departSpeed="8.00" departDelay="0.73" arrival="212.00" arrivalLane="junctionNorth_0" arrivalPos="492.80" arrivalSpeed="7.54" duration="164.00" routeLength="995.01" waitingTime="9.00" waitingCount="2" stopTime="0.00" timeLoss="44.15" rerouteNo="0" devices="tripinfo_southNorth.4 ssm_southNorth.4" vType="carCustom" speedFactor="1.09" vaporized=""/>
    <tripinfo id="westEastBottom0.5" depart="47.00" departLane="westJunction_0" departPos="5.10" departSpeed="5.26" departDelay="0.92" arrival="213.00" arrivalLane="junctionEast_0" arrivalPos="492.80" arrivalSpeed="7.49" duration="166.00" routeLength="994.90" waitingTime="0.00" waitingCount="0" stopTime="0.00" timeLoss="45.92" rerouteNo="0" devices="tripinfo_westEastBottom0.5 ssm_westEastBottom0.5" vType="carCustom" speedFactor="0.88" vaporized=""/>
    <tripinfo id="westEastBottom0.6" depart="53.00" departLane="westJunction_0" departPos="5.10" departSpeed="5.98" departDelay="0.62" arrival="216.00" arrivalLane="junctionEast_0" arrivalPos="492.80" arrivalSpeed="8.17" duration="163.00" routeLength="994.90" waitingTime="5.00" waitingCount="1" stopTime="0.00" timeLoss="42.54" rerouteNo="0" devices="tripinfo_westEastBottom0.6 ssm_westEastBottom0.6" vType="carCustom" speedFactor="1.20" vaporized=""/>
    <tripinfo id="westEastBottom0.14" depart="146.00" departLane="westJunction_0" departPos="5.10" departSpeed="5.79" departDelay="0.25" arrival="219.00" arrivalLane="junctionEast_0" arrivalPos="492.80" arrivalSpeed="3.81" duration="73.00" routeLength="994.90" waitingTime="0.00" waitingCount="0" stopTime="0.00" timeLoss="12.57" rerouteNo="0" devices="tripinfo_westEastBottom0.14 ssm_westEastBottom0.14" vType="carCustom" speedFactor="1.10" vaporized="teleport"/>
    <tripinfo id="westEastBottom0.7" depart="56.00" departLane="westJunction_0" departPos="5.10" departSpeed="5.23" departDelay="0.66" arrival="221.00" arrivalLane="junctionEast_0" arrivalPos="492.80" arrivalSpeed="7.54" duration="165.00" routeLength="994.90" waitingTime="0.00" waitingCount="0" stopTime="0.00" timeLoss="45.48" rerouteNo="0" devices="tripinfo_westEastBottom0.7 ssm_westEastBottom0.7" vType="carCustom" speedFactor="0.97" vaporized=""/>
    <tripinfo id="southNorth.5" depart="53.00" departLane="southJunction_1" departPos="5.10" departSpeed="4.81" departDelay="0.15" arrival="223.00" arrivalLane="junctionNorth_0" arrivalPos="492.80" arrivalSpeed="8.22" duration="170.00" routeLength="995.01" waitingTime="8.00" waitingCount="2" stopTime="0.00" timeLoss="50.47" rerouteNo="0" devices="tripinfo_southNorth.5 ssm_southNorth.5" vType="carCustom" speedFactor="0.91" vaporized=""/>
    <tripinfo id="westEastTop.7" depart="44.00" departLane="westJunction_1" departPos="5.10" departSpeed="1.93" departDelay="4.55" arrival="226.00" arrivalLane="junctionEast_0" arrivalPos="492.80" arrivalSpeed="7.24" duration="182.00" routeLength="994.90" waitingTime="0.00" waitingCount="0" stopTime="0.00" timeLoss="62.10" rerouteNo="0" devices="tripinfo_westEastTop.7 ssm_westEastTop.7" vType="carCustom" speedFactor="1.01" vaporized=""/>
    <tripinfo id="southEast.6" depart="66.00" departLane="southJunction_0" departPos="5.10" departSpeed="3.53" departDelay="0.11" arrival="231.00" arrivalLane="junctionEast_0" arrivalPos="492.80" arrivalSpeed="7.79" duration="165.00" routeLength="989.53" waitingTime="0.00" waitingCount="0" stopTime="0.00" timeLoss="45.55" rerouteNo="0" devices="tripinfo_southEast.6 ssm_southEast.6" vType="carCustom" speedFactor="0.95" vaporized=""/>
    <tripinfo id="southNorth.6" depart="56.00" departLane="southJunction_1" departPos="5.10" departSpeed="4.22" departDelay="2.94" arrival="235.00" arrivalLane="junctionNorth_0" arrivalPos="492.80" arrivalSpeed="7.39" duration="179.00" routeLength="995.01" waitingTime="7.00" waitingCount="2" stopTime="0.00" timeLoss="58.93" rerouteNo="0" devices="tripinfo_southNorth.6 ssm_southNorth.6" vType="carCustom" speedFactor="0.86" vaporized=""/>
    <tripinfo id="westEastBottom0.8" depart="67.00" departLane="westJunction_0" departPos="5.10" departSpeed="4.42" departDelay="0.64" arrival="235.00" arrivalLane="junctionEast_0" arrivalPos="492.80" arrivalSpeed="7.49" duration="168.00" routeLength="994.90" waitingTime="0.00" waitingCount="0" stopTime="0.00" timeLoss="48.07" rerouteNo="0" devices="tripinfo_westEastBottom0.8 ssm_westEastBottom0.8" vType="carCustom" speedFactor="1.24" vaporized=""/>
    <tripinfo id="westEastTop.6" depart="38.00" departLane="westJunction_1" departPos="5.10" departSpeed="2.16" departDelay="1.60" arrival="240.00" arrivalLane="junctionEast_0" arrivalPos="492.80" arrivalSpeed="8.29" duration="202.00" routeLength="994.90" waitingTime="0.00" waitingCount="0" stopTime="0.00" timeLoss="82.17" rerouteNo="0" devices="tripinfo_westEastTop.6 ssm_westEastTop.6" vType="carCustom" speedFactor="1.00" vaporized=""/>
    <tripinfo id="westEastTop.8" depart="51.00" departLane="westJunction_1" departPos="5.10" departSpeed="2.75" departDelay="4.60" arrival="244.00" arrivalLane="junctionEast_0" arrivalPos="492.80" arrivalSpeed="7.27" duration="193.00" routeLength="994.90" waitingTime="0.00" waitingCount="0" stopTime="0.00" timeLoss="73.49" rerouteNo="0" devices="tripinfo_westEastTop.8 ssm_westEastTop.8" vType="carCustom" speedFactor="0.91" vaporized=""/>
    <tripinfo id="southNorth.7" depart="60.00" departLane="southJunction_1" departPos="5.10" departSpeed="1.77" departDelay="3.32" arrival="245.00" arrivalLane="junctionNorth_0" arrivalPos="492.80" arrivalSpeed="7.55" duration="185.00" routeLength="995.01" waitingTime="4.00" waitingCount="2" stopTime="0.00" timeLoss="64.66" rerouteNo="0" devices="tripinfo_southNorth.7 ssm_southNorth.7" vType="carCustom" speedFactor="1.17" vaporized=""/>
    <tripinfo id="southEast.7" depart="70.00" departLane="southJunction_0" departPos="5.10" departSpeed="3.79" departDelay="2.59" arrival="249.00" arrivalLane="junctionEast_0" arrivalPos="492.80" arrivalSpeed="7.71" duration="179.00" routeLength="989.53" waitingTime="0.00" waitingCount="0" stopTime="0.00" timeLoss="59.39" rerouteNo="0" devices="tripinfo_southEast.7 ssm_southEast.7" vType="carCustom" speedFactor="1.12" vaporized=""/>
    <tripinfo id="westEastTop.9" depart="57.00" departLane="westJunction_1" departPos="5.10" departSpeed="2.17" departDelay="8.59" arrival="253.00" arrivalLane="junctionEast_0" arrivalPos="492.80" arrivalSpeed="7.78" duration="196.00" routeLength="994.90" waitingTime="1.00" waitingCount="1" stopTime="0.00" timeLoss="76.27" rerouteNo="0" devices="tripinfo_westEastTop.9 ssm_westEastTop.9" vType="carCustom" speedFactor="1.00" vaporized=""/>
    <tripinfo id="southNorth.8" depart="67.00" departLane="southJunction_1" departPos="5.10" departSpeed="2.35" departDelay="9.21" arrival="254.00" arrivalLane="junctionNorth_0" arrivalPos="492.80" arrivalSpeed="7.99" duration="187.00" routeLength="995.01" waitingTime="4.00" waitingCount="1" stopTime="0.00" timeLoss="67.55" rerouteNo="0" devices="tripinfo_southNorth.8 ssm_southNorth.8" vType="carCustom" speedFactor="1.03" vaporized=""/>
    <tripinfo id="westEastBottom0.9" depart="99.00" departLane="westJunction_0" departPos="5.10" departSpeed="5.87" departDelay="0.89" arrival="257.00" arrivalLane="junctionEast_0" arrivalPos="492.80" arrivalSpeed="7.27" duration="158.00" routeLength="994.90" waitingTime="0.00" waitingCount="0" stopTime="0.00" timeLoss="38.26" rerouteNo="0" devices="tripinfo_westEastBottom0.9 ssm_westEastBottom0.9" vType="carCustom" speedFactor="0.93" vaporized=""/>
    <tripinfo id="westEastBottom0.10" depart="107.00" departLane="westJunction_0" departPos="5.10" departSpeed="7.33" departDelay="0.47" arrival="262.00" arrivalLane="junctionEast_0" arrivalPos="492.80" arrivalSpeed="8.27" duration="155.00" routeLength="994.90" waitingTime="0.00" waitingCount="0" stopTime="0.00" timeLoss="35.47" rerouteNo="0" devices="tripinfo_westEastBottom0.10 ssm_westEastBottom0.10" vType="carCustom" speedFactor="0.84" vaporized=""/>
    <tripinfo id="southNorth.9" depart="73.00" departLane="southJunction_1" departPos="5.10" departSpeed="2.41" departDelay="12.57" arrival="265.00" arrivalLane="junctionNorth_0" arrivalPos="492.80" arrivalSpeed="7.93" duration="192.00" routeLength="995.01" waitingTime="4.00" waitingCount="1" stopTime="0.00" timeLoss="71.84" rerouteNo="0" devices="tripinfo_southNorth.9 ssm_southNorth.9" vType="carCustom" speedFactor="1.05" vaporized=""/>
    <tripinfo id="southEast.8" depart="74.00" departLane="southJunction_0" departPos="5.10" departSpeed="2.96" departDelay="2.79" arrival="267.00" arrivalLane="junctionEast_0" arrivalPos="492.80" arrivalSpeed="7.78" duration="193.00" routeLength="989.53" waitingTime="0.00" waitingCount="0" stopTime="0.00" timeLoss="73.90" rerouteNo="0" devices="tripinfo_southEast.8 ssm_southEast.8" vType="carCustom" speedFactor="1.10" vaporized=""/>
    <tripinfo id="westEastTop.10" depart="64.00" departLane="westJunction_1" departPos="5.10" departSpeed="1.43" departDelay="8.84" arrival="271.00" arrivalLane="junctionEast_0" arrivalPos="492.80" arrivalSpeed="7.64" duration="207.00" routeLength="994.90" waitingTime="1.00" waitingCount="1" stopTime="0.00" timeLoss="87.06" rerouteNo="0" devices="tripinfo_westEastTop.10 ssm_westEastTop.10" vType="carCustom" speedFactor="1.03" vaporized=""/>
    <tripinfo id="southEast.21" depart="156.00" departLane="southJunction_0" departPos="5.10" departSpeed="2.40" departDelay="12.35" arrival="274.00" arrivalLane="junctionEast_0" arrivalPos="492.80" arrivalSpeed="1.50" duration="118.00" routeLength="989.53" waitingTime="0.00" waitingCount="0" stopTime="0.00" timeLoss="57.99" rerouteNo="0" devices="tripinfo_southEast.21 ssm_southEast.21" vType="carCustom" speedFactor="0.97" vaporized="teleport"/>
    <tripinfo id="southNorth.10" depart="78.00" departLane="southJunction_1" departPos="5.10" departSpeed="2.24" departDelay="15.60" arrival="275.00" arrivalLane="junctionNorth_0" arrivalPos="492.80" arrivalSpeed="7.58" duration="197.00" routeLength="995.01" waitingTime="4.00" waitingCount="2" stopTime="0.00" timeLoss="77.16" rerouteNo="0" devices="tripinfo_southNorth.10 ssm_southNorth.10" vType="carCustom" speedFactor="1.17" vaporized=""/>
    <tripinfo id="southEast.9" depart="81.00" departLane="southJunction_0" departPos="5.10" departSpeed="2.97" departDelay="0.72" arrival="276.00" arrivalLane="junctionEast_0" arrivalPos="492.80" arrivalSpeed="8.26" duration="195.00" routeLength="989.53" waitingTime="0.00" waitingCount="0" stopTime="0.00" timeLoss="75.96" rerouteNo="0" devices="tripinfo_southEast.9 ssm_southEast.9" vType="carCustom" speedFactor="1.05" vaporized=""/>
    <tripinfo id="westEastBottom0.11" depart="114.00" departLane="westJunction_0" departPos="5.10" departSpeed="6.98" departDelay="0.70" arrival="281.00" arrivalLane="junctionEast_0" arrivalPos="492.80" arrivalSpeed="8.10" duration="167.00" routeLength="994.90" waitingTime="0.00" waitingCount="0" stopTime="0.00" timeLoss="47.33" rerouteNo="0" devices="tripinfo_westEastBottom0.11 ssm_westEastBottom0.11" vType="carCustom" speedFactor="0.95" vaporized=""/>
    <tripinfo id="westEastTop.11" depart="71.00" departLane="westJunction_1" departPos="5.10" departSpeed="2.39" departDelay="10.12" arrival="282.00" arrivalLane="junctionEast_1" arrivalPos="492.80" arrivalSpeed="7.14" duration="211.00" routeLength="994.90" waitingTime="1.00" waitingCount="1" stopTime="0.00" timeLoss="91.52" rerouteNo="0" devices="tripinfo_westEastTop.11 ssm_westEastTop.11" vType="carCustom" speedFactor="1.02" vaporized=""/>
    <tripinfo id="westEastBottom0.20" depart="188.00" departLane="westJunction_0" departPos="5.10" departSpeed="2.90" departDelay="0.41" arrival="283.00" arrivalLane="junctionEast_0" arrivalPos="492.80" arrivalSpeed="2.19" duration="95.00" routeLength="994.90" waitingTime="0.00" waitingCount="0" stopTime="0.00" timeLoss="34.46" rerouteNo="0" devices="tripinfo_westEastBottom0.20 ssm_westEastBottom0.20" vType="carCustom" speedFactor="0.99" vaporized="teleport"/>
    <tripinfo id="southNorth.11" depart="85.00" departLane="southJunction_1" departPos="5.10" departSpeed="1.73" departDelay="17.27" arrival="285.00" arrivalLane="junctionNorth_0" arrivalPos="492.80" arrivalSpeed="7.26" duration="200.00" routeLength="995.01" waitingTime="3.00" waitingCount="2" stopTime="0.00" timeLoss="80.19" rerouteNo="0" devices="tripinfo_southNorth.11 ssm_southNorth.11" vType="carCustom" speedFactor="0.94" vaporized=""/>
    <tripinfo id="southEast.10" depart="90.00" departLane="southJunction_0" departPos="5.10" departSpeed="3.45" departDelay="0.48" arrival="289.00" arrivalLane="junctionEast_0" arrivalPos="492.80" arrivalSpeed="7.83" duration="199.00" routeLength="989.53" waitingTime="0.00" waitingCount="0" stopTime="0.00" timeLoss="79.18" rerouteNo="0" devices="tripinfo_southEast.10 ssm_southEast.10" vType="carCustom" speedFactor="1.04" vaporized=""/>
    <tripinfo id="westEastBottom0.12" depart="118.00" departLane="westJunction_0" departPos="5.10" departSpeed="5.75" departDelay="0.90" arrival="291.00" arrivalLane="junctionEast_1" arrivalPos="492.80" arrivalSpeed="7.72" duration="173.00" routeLength="994.90" waitingTime="0.00" waitingCount="0" stopTime="0.00" timeLoss="53.00" rerouteNo="0" devices="tripinfo_westEastBottom0.12 ssm_westEastBottom0.12" vType="carCustom" speedFactor="1.05" vaporized=""/>
    <tripinfo id="southNorth.12" depart="99.00" departLane="southJunction_1" departPos="5.10" departSpeed="3.51" departDelay="0.06" arrival="294.00" arrivalLane="junctionNorth_0" arrivalPos="492.80" arrivalSpeed="7.63" duration="195.00" routeLength="995.01" waitingTime="3.00" waitingCount="1" stopTime="0.00" timeLoss="75.49" rerouteNo="0" devices="tripinfo_southNorth.12 ssm_southNorth.12" vType="carCustom" speedFactor="1.03" vaporized=""/>
    <tripinfo id="southEast.11" depart="100.00" departLane="southJunction_0" departPos="5.10" departSpeed="3.80" departDelay="0.19" arrival="297.00" arrivalLane="junctionEast_0" arrivalPos="492.80" arrivalSpeed="7.47" duration="197.00" routeLength="989.53" waitingTime="0.00" waitingCount="0" stopTime="0.00" timeLoss="77.22" rerouteNo="0" devices="tripinfo_southEast.11 ssm_southEast.11" vType="carCustom" speedFactor="1.07" vaporized=""/>
    <tripinfo id="southEast.20" depart="151.00" departLane="southJunction_0" departPos="5.10" departSpeed="2.44" departDelay="12.45" arrival="297.00" arrivalLane="junctionEast_0" arrivalPos="492.80" arrivalSpeed="2.02" duration="146.00" routeLength="989.53" waitingTime="0.00" waitingCount="0" stopTime="0.00" timeLoss="86.15" rerouteNo="0" devices="tripinfo_southEast.20 ssm_southEast.20" vType="carCustom" speedFactor="1.22" vaporized="teleport"/>
    <tripinfo id="westEastTop.12" depart="77.00" departLane="westJunction_1" departPos="5.10" departSpeed="1.89" departDelay="15.66" arrival="299.00" arrivalLane="junctionEast_1" arrivalPos="492.80" arrivalSpeed="8.11" duration="222.00" routeLength="994.90" waitingTime="2.00" waitingCount="1" stopTime="0.00" timeLoss="102.16" rerouteNo="0" devices="tripinfo_westEastTop.12 ssm_westEastTop.12" vType="carCustom" speedFactor="0.81" vaporized=""/>
    <tripinfo id="southEast.22" depart="158.00" departLane="southJunction_0" departPos="5.10" departSpeed="2.10" departDelay="11.41" arrival="304.00" arrivalLane="junctionEast_0" arrivalPos="492.80" arrivalSpeed="3.33" duration="146.00" routeLength="989.53" waitingTime="0.00" waitingCount="0" stopTime="0.00" timeLoss="85.91" rerouteNo="0" devices="tripinfo_southEast.22 ssm_southEast.22" vType="carCustom" speedFactor="0.98" vaporized="teleport"/>
    <tripinfo id="westEastBottom0.13" depart="121.00" departLane="westJunction_0" departPos="5.10" departSpeed="4.13" departDelay="3.10" arrival="305.00" arrivalLane="junctionEast_0" arrivalPos="492.80" arrivalSpeed="8.28" duration="184.00" routeLength="994.90" waitingTime="0.00" waitingCount="0" stopTime="0.00" timeLoss="64.26" rerouteNo="0" devices="tripinfo_westEastBottom0.13 ssm_westEastBottom0.13" vType="carCustom" speedFactor="1.00" vaporized=""/>
    <tripinfo id="southNorth.13" depart="103.00" departLane="southJunction_1" departPos="5.10" departSpeed="3.57" departDelay="2.94" arrival="307.00" arrivalLane="junctionNorth_0" arrivalPos="492.80" arrivalSpeed="7.58" duration="204.00" routeLength="995.01" waitingTime="5.00" waitingCount="1" stopTime="0.00" timeLoss="83.68" rerouteNo="0" devices="tripinfo_southNorth.13 ssm_southNorth.13" vType="carCustom" speedFactor="0.98" vaporized=""/>
    <tripinfo id="westEastTop.13" depart="84.00" departLane="westJunction_1" departPos="5.10" departSpeed="2.41" departDelay="22.21" arrival="308.00" arrivalLane="junctionEast_1" arrivalPos="492.80" arrivalSpeed="7.58" duration="224.00" routeLength="994.90" waitingTime="2.00" waitingCount="1" stopTime="0.00" timeLoss="103.78" rerouteNo="0" devices="tripinfo_westEastTop.13 ssm_westEastTop.13" vType="carCustom" speedFactor="0.99" vaporized=""/>
    <tripinfo id="southEast.13" depart="112.00" departLane="southJunction_0" departPos="5.10" departSpeed="3.76" departDelay="0.27" arrival="314.00" arrivalLane="junctionEast_0" arrivalPos="492.80" arrivalSpeed="7.66" duration="202.00" routeLength="989.53" waitingTime="0.00" waitingCount="0" stopTime="0.00" timeLoss="81.86" rerouteNo="0" devices="tripinfo_southEast.13 ssm_southEast.13" vType="carCustom" speedFactor="0.90" vaporized=""/>
    <tripinfo id="westEastTop.14" depart="91.00" departLane="westJunction_1" departPos="5.10" departSpeed="1.59" departDelay="27.65" arrival="316.00" arrivalLane="junctionEast_1" arrivalPos="492.80" arrivalSpeed="7.46" duration="225.00" routeLength="994.90" waitingTime="2.00" waitingCount="1" stopTime="0.00" timeLoss="105.56" rerouteNo="0" devices="tripinfo_westEastTop.14 ssm_westEastTop.14" vType="carCustom" speedFactor="1.08" vaporized=""/>
    <tripinfo id="southNorth.14" depart="107.00" departLane="southJunction_1" departPos="5.10" departSpeed="3.06" departDelay="3.67" arrival="318.00" arrivalLane="junctionNorth_0" arrivalPos="492.80" arrivalSpeed="7.21" duration="211.00" routeLength="995.01" waitingTime="5.00" waitingCount="2" stopTime="0.00" timeLoss="91.17" rerouteNo="0" devices="tripinfo_southNorth.14 ssm_southNorth.14" vType="carCustom" speedFactor="1.15" vaporized=""/>