<?xml version="1.0" encoding="UTF-8"?>

<!-- generated on 2025-04-29 05:45:58 by Eclipse SUMO sumo Version 1.20.0
<configuration xmlns:xsi="http://www.w3.org/2001/XMLSchema-instance" xsi:noNamespaceSchemaLocation="http://sumo.dlr.de/xsd/sumoConfiguration.xsd">

    <input>
        <net-file value="nets/2lane_unprotected_right/2lane_unprotected_right.net.xml"/>
        <route-files value="nets/2lane_unprotected_right/2lane_unprotected_right.rou.xml"/>
    </input>

    <output>
        <tripinfo-output value="traces/transs50f1_s50_f0.5_random/0077_tripinfo.xml"/>
        <collision-output value="traces/transs50f1_s50_f0.5_random/0077_collisions.xml"/>
        <statistic-output value="traces/transs50f1_s50_f0.5_random/0077_statistics.xml"/>
    </output>

    <processing>
        <collision.action value="teleport"/>
        <collision.check-junctions value="true"/>
        <time-to-teleport value="-1"/>
        <waiting-time-memory value="1000"/>
        <max-depart-delay value="-1"/>
        <default.speeddev value="0.1"/>
    </processing>

    <report>
        <no-warnings value="true"/>
    </report>

    <ssm_device>
        <device.ssm.probability value="1.0"/>
        <device.ssm.measures value="BR"/>
        <device.ssm.file value="/Users/finn/Code/CausalKnowledgeTransfer-4-SafeRL/traces/transs50f1_s50_f0.5_random/0077_ssm.xml"/>
    </ssm_device>

    <traci_server>
        <remote-port value="63364"/>
    </traci_server>

    <random_number>
        <random value="true"/>
    </random_number>

</configuration>
-->

<tripinfos xmlns:xsi="http://www.w3.org/2001/XMLSchema-instance" xsi:noNamespaceSchemaLocation="http://sumo.dlr.de/xsd/tripinfo_file.xsd">
    <tripinfo id="westEastTop.0" depart="4.00" departLane="westJunction_1" departPos="5.10" departSpeed="8.33" departDelay="0.69" arrival="133.00" arrivalLane="junctionEast_0" arrivalPos="492.80" arrivalSpeed="7.31" duration="129.00" routeLength="994.90" waitingTime="0.00" waitingCount="0" stopTime="0.00" timeLoss="8.71" rerouteNo="0" devices="tripinfo_westEastTop.0 ssm_westEastTop.0" vType="carCustom" speedFactor="0.94" vaporized=""/>
    <tripinfo id="southEast.0" depart="3.00" departLane="southJunction_0" departPos="5.10" departSpeed="8.33" departDelay="0.79" arrival="143.00" arrivalLane="junctionEast_0" arrivalPos="492.80" arrivalSpeed="8.02" duration="140.00" routeLength="989.53" waitingTime="2.00" waitingCount="1" stopTime="0.00" timeLoss="20.89" rerouteNo="0" devices="tripinfo_southEast.0 ssm_southEast.0" vType="carCustom" speedFactor="1.14" vaporized=""/>
    <tripinfo id="westEastTop.1" depart="9.00" departLane="westJunction_1" departPos="5.10" departSpeed="7.51" departDelay="0.54" arrival="145.00" arrivalLane="junctionEast_1" arrivalPos="492.80" arrivalSpeed="7.42" duration="136.00" routeLength="994.90" waitingTime="0.00" waitingCount="0" stopTime="0.00" timeLoss="15.82" rerouteNo="0" devices="tripinfo_westEastTop.1 ssm_westEastTop.1" vType="carCustom" speedFactor="1.08" vaporized=""/>
    <tripinfo id="westEastBottom0.0" depart="13.00" departLane="westJunction_0" departPos="5.10" departSpeed="8.33" departDelay="0.69" arrival="154.00" arrivalLane="junctionEast_0" arrivalPos="492.80" arrivalSpeed="7.67" duration="141.00" routeLength="994.90" waitingTime="0.00" waitingCount="0" stopTime="0.00" timeLoss="21.31" rerouteNo="0" devices="tripinfo_westEastBottom0.0 ssm_westEastBottom0.0" vType="carCustom" speedFactor="0.83" vaporized=""/>
    <tripinfo id="westEastTop.2" depart="16.00" departLane="westJunction_1" departPos="5.10" departSpeed="5.60" departDelay="0.54" arrival="155.00" arrivalLane="junctionEast_1" arrivalPos="492.80" arrivalSpeed="7.91" duration="139.00" routeLength="994.90" waitingTime="0.00" waitingCount="0" stopTime="0.00" timeLoss="19.40" rerouteNo="0" devices="tripinfo_westEastTop.2 ssm_westEastTop.2" vType="carCustom" speedFactor="0.92" vaporized=""/>
    <tripinfo id="southEast.1" depart="5.00" departLane="southJunction_0" departPos="5.10" departSpeed="7.68" departDelay="1.90" arrival="165.00" arrivalLane="junctionEast_0" arrivalPos="492.80" arrivalSpeed="7.90" duration="160.00" routeLength="989.53" waitingTime="0.00" waitingCount="0" stopTime="0.00" timeLoss="40.14" rerouteNo="0" devices="tripinfo_southEast.1 ssm_southEast.1" vType="carCustom" speedFactor="1.01" vaporized=""/>
    <tripinfo id="southNorth.0" depart="7.00" departLane="southJunction_1" departPos="5.10" departSpeed="8.33" departDelay="0.07" arrival="166.00" arrivalLane="junctionNorth_0" arrivalPos="492.80" arrivalSpeed="8.19" duration="159.00" routeLength="995.01" waitingTime="25.00" waitingCount="1" stopTime="0.00" timeLoss="39.44" rerouteNo="0" devices="tripinfo_southNorth.0 ssm_southNorth.0" vType="carCustom" speedFactor="0.93" vaporized=""/>
    <tripinfo id="westEastBottom0.1" depart="25.00" departLane="westJunction_0" departPos="5.10" departSpeed="8.01" departDelay="0.91" arrival="166.00" arrivalLane="junctionEast_1" arrivalPos="492.80" arrivalSpeed="7.83" duration="141.00" routeLength="994.90" waitingTime="0.00" waitingCount="0" stopTime="0.00" timeLoss="21.15" rerouteNo="0" devices="tripinfo_westEastBottom0.1 ssm_westEastBottom0.1" vType="carCustom" speedFactor="0.88" vaporized=""/>
    <tripinfo id="southEast.9" depart="73.00" departLane="southJunction_0" departPos="5.10" departSpeed="6.67" departDelay="0.61" arrival="166.00" arrivalLane="junctionEast_0" arrivalPos="492.80" arrivalSpeed="0.68" duration="93.00" routeLength="989.53" waitingTime="0.00" waitingCount="0" stopTime="0.00" timeLoss="32.83" rerouteNo="0" devices="tripinfo_southEast.9 ssm_southEast.9" vType="carCustom" speedFactor="0.90" vaporized="teleport"/>
    <tripinfo id="southEast.2" depart="8.00" departLane="southJunction_0" departPos="5.10" departSpeed="5.01" departDelay="4.38" arrival="175.00" arrivalLane="junctionEast_0" arrivalPos="492.80" arrivalSpeed="7.42" duration="167.00" routeLength="989.53" waitingTime="0.00" waitingCount="0" stopTime="0.00" timeLoss="47.07" rerouteNo="0" devices="tripinfo_southEast.2 ssm_southEast.2" vType="carCustom" speedFactor="0.97" vaporized=""/>
    <tripinfo id="westEastTop.3" depart="24.00" departLane="westJunction_1" departPos="5.10" departSpeed="4.60" departDelay="0.97" arrival="177.00" arrivalLane="junctionEast_1" arrivalPos="492.80" arrivalSpeed="7.32" duration="153.00" routeLength="994.90" waitingTime="0.00" waitingCount="0" stopTime="0.00" timeLoss="32.74" rerouteNo="0" devices="tripinfo_westEastTop.3 ssm_westEastTop.3" vType="carCustom" speedFactor="0.94" vaporized=""/>
    <tripinfo id="southEast.11" depart="80.00" departLane="southJunction_0" departPos="5.10" departSpeed="4.50" departDelay="0.75" arrival="182.00" arrivalLane="junctionEast_0" arrivalPos="492.80" arrivalSpeed="1.86" duration="102.00" routeLength="989.53" waitingTime="0.00" waitingCount="0" stopTime="0.00" timeLoss="42.09" rerouteNo="0" devices="tripinfo_southEast.11 ssm_southEast.11" vType="carCustom" speedFactor="1.18" vaporized="teleport"/>
    <tripinfo id="southNorth.1" depart="12.00" departLane="southJunction_1" departPos="5.10" departSpeed="3.24" departDelay="3.69" arrival="185.00" arrivalLane="junctionNorth_0" arrivalPos="492.80" arrivalSpeed="7.48" duration="173.00" routeLength="995.01" waitingTime="16.00" waitingCount="2" stopTime="0.00" timeLoss="53.39" rerouteNo="0" devices="tripinfo_southNorth.1 ssm_southNorth.1" vType="carCustom" speedFactor="1.16" vaporized=""/>
    <tripinfo id="southEast.3" depart="20.00" departLane="southJunction_0" departPos="5.10" departSpeed="6.09" departDelay="0.40" arrival="185.00" arrivalLane="junctionEast_0" arrivalPos="492.80" arrivalSpeed="7.83" duration="165.00" routeLength="989.53" waitingTime="0.00" waitingCount="0" stopTime="0.00" timeLoss="45.22" rerouteNo="0" devices="tripinfo_southEast.3 ssm_southEast.3" vType="carCustom" speedFactor="1.05" vaporized=""/>
    <tripinfo id="westEastBottom0.2" depart="27.00" departLane="westJunction_0" departPos="5.10" departSpeed="7.68" departDelay="0.21" arrival="187.00" arrivalLane="junctionEast_1" arrivalPos="492.80" arrivalSpeed="7.49" duration="160.00" routeLength="994.90" waitingTime="4.00" waitingCount="1" stopTime="0.00" timeLoss="39.72" rerouteNo="0" devices="tripinfo_westEastBottom0.2 ssm_westEastBottom0.2" vType="carCustom" speedFactor="1.03" vaporized=""/>
    <tripinfo id="westEastBottom0.11" depart="122.00" departLane="westJunction_0" departPos="5.10" departSpeed="5.93" departDelay="0.05" arrival="190.00" arrivalLane="junctionEast_0" arrivalPos="492.80" arrivalSpeed="4.72" duration="68.00" routeLength="994.90" waitingTime="0.00" waitingCount="0" stopTime="0.00" timeLoss="7.65" rerouteNo="0" devices="tripinfo_westEastBottom0.11 ssm_westEastBottom0.11" vType="carCustom" speedFactor="1.20" vaporized="teleport"/>
    <tripinfo id="southEast.4" depart="23.00" departLane="southJunction_0" departPos="5.10" departSpeed="7.21" departDelay="0.74" arrival="195.00" arrivalLane="junctionEast_0" arrivalPos="492.80" arrivalSpeed="7.73" duration="172.00" routeLength="989.53" waitingTime="0.00" waitingCount="0" stopTime="0.00" timeLoss="52.30" rerouteNo="0" devices="tripinfo_southEast.4 ssm_southEast.4" vType="carCustom" speedFactor="1.06" vaporized=""/>
    <tripinfo id="southNorth.2" depart="28.00" departLane="southJunction_1" departPos="5.10" departSpeed="5.06" departDelay="0.78" arrival="197.00" arrivalLane="junctionNorth_0" arrivalPos="492.80" arrivalSpeed="8.22" duration="169.00" routeLength="995.01" waitingTime="11.00" waitingCount="2" stopTime="0.00" timeLoss="48.76" rerouteNo="0" devices="tripinfo_southNorth.2 ssm_southNorth.2" vType="carCustom" speedFactor="0.95" vaporized=""/>
    <tripinfo id="westEastBottom0.3" depart="30.00" departLane="westJunction_0" departPos="5.10" departSpeed="5.02" departDelay="2.12" arrival="197.00" arrivalLane="junctionEast_1" arrivalPos="492.80" arrivalSpeed="8.01" duration="167.00" routeLength="994.90" waitingTime="0.00" waitingCount="0" stopTime="0.00" timeLoss="47.51" rerouteNo="0" devices="tripinfo_westEastBottom0.3 ssm_westEastBottom0.3" vType="carCustom" speedFactor="0.94" vaporized=""/>
    <tripinfo id="westEastBottom0.4" depart="41.00" departLane="westJunction_0" departPos="5.10" departSpeed="5.52" departDelay="0.48" arrival="205.00" arrivalLane="junctionEast_0" arrivalPos="492.80" arrivalSpeed="7.84" duration="164.00" routeLength="994.90" waitingTime="0.00" waitingCount="0" stopTime="0.00" timeLoss="43.79" rerouteNo="0" devices="tripinfo_westEastBottom0.4 ssm_westEastBottom0.4" vType="carCustom" speedFactor="0.91" vaporized=""/>
    <tripinfo id="southNorth.3" depart="33.00" departLane="southJunction_1" departPos="5.10" departSpeed="5.35" departDelay="0.94" arrival="207.00" arrivalLane="junctionNorth_0" arrivalPos="492.80" arrivalSpeed="7.87" duration="174.00" routeLength="995.01" waitingTime="4.00" waitingCount="1" stopTime="0.00" timeLoss="54.50" rerouteNo="0" devices="tripinfo_southNorth.3 ssm_southNorth.3" vType="carCustom" speedFactor="1.09" vaporized=""/>
    <tripinfo id="westEastTop.4" depart="37.00" departLane="westJunction_1" departPos="5.10" departSpeed="4.22" departDelay="0.27" arrival="207.00" arrivalLane="junctionEast_1" arrivalPos="492.80" arrivalSpeed="7.76" duration="170.00" routeLength="994.90" waitingTime="0.00" waitingCount="0" stopTime="0.00" timeLoss="50.41" rerouteNo="0" devices="tripinfo_westEastTop.4 ssm_westEastTop.4" vType="carCustom" speedFactor="1.01" vaporized=""/>
    <tripinfo id="southEast.5" depart="30.00" departLane="southJunction_0" departPos="5.10" departSpeed="3.62" departDelay="0.75" arrival="214.00" arrivalLane="junctionEast_0" arrivalPos="492.80" arrivalSpeed="7.45" duration="184.00" routeLength="989.53" waitingTime="0.00" waitingCount="0" stopTime="0.00" timeLoss="64.60" rerouteNo="0" devices="tripinfo_southEast.5 ssm_southEast.5" vType="carCustom" speedFactor="0.99" vaporized=""/>
    <tripinfo id="westEastBottom0.5" depart="44.00" departLane="westJunction_0" departPos="5.10" departSpeed="6.50" departDelay="2.27" arrival="217.00" arrivalLane="junctionEast_0" arrivalPos="492.80" arrivalSpeed="7.46" duration="173.00" routeLength="994.90" waitingTime="0.00" waitingCount="0" stopTime="0.00" timeLoss="53.36" rerouteNo="0" devices="tripinfo_westEastBottom0.5 ssm_westEastBottom0.5" vType="carCustom" speedFactor="1.11" vaporized=""/>
    <tripinfo id="westEastBottom0.13" depart="134.00" departLane="westJunction_0" departPos="5.10" departSpeed="4.62" departDelay="0.02" arrival="219.00" arrivalLane="junctionEast_0" arrivalPos="492.80" arrivalSpeed="2.03" duration="85.00" routeLength="994.90" waitingTime="1.00" waitingCount="1" stopTime="0.00" timeLoss="24.53" rerouteNo="0" devices="tripinfo_westEastBottom0.13 ssm_westEastBottom0.13" vType="carCustom" speedFactor="1.02" vaporized="teleport"/>
    <tripinfo id="southEast.6" depart="35.00" departLane="southJunction_0" departPos="5.10" departSpeed="4.48" departDelay="0.19" arrival="224.00" arrivalLane="junctionEast_0" arrivalPos="492.80" arrivalSpeed="7.58" duration="189.00" routeLength="989.53" waitingTime="0.00" waitingCount="0" stopTime="0.00" timeLoss="69.06" rerouteNo="0" devices="tripinfo_southEast.6 ssm_southEast.6" vType="carCustom" speedFactor="0.93" vaporized=""/>
    <tripinfo id="southNorth.4" depart="46.00" departLane="southJunction_1" departPos="5.10" departSpeed="5.12" departDelay="0.46" arrival="224.00" arrivalLane="junctionNorth_0" arrivalPos="492.80" arrivalSpeed="7.48" duration="178.00" routeLength="995.01" waitingTime="11.00" waitingCount="1" stopTime="0.00" timeLoss="58.33" rerouteNo="0" devices="tripinfo_southNorth.4 ssm_southNorth.4" vType="carCustom" speedFactor="0.92" vaporized=""/>
    <tripinfo id="westEastTop.5" depart="40.00" departLane="westJunction_1" departPos="5.10" departSpeed="3.61" departDelay="1.30" arrival="227.00" arrivalLane="junctionEast_0" arrivalPos="492.80" arrivalSpeed="8.02" duration="187.00" routeLength="994.90" waitingTime="0.00" waitingCount="0" stopTime="0.00" timeLoss="67.05" rerouteNo="0" devices="tripinfo_westEastTop.5 ssm_westEastTop.5" vType="carCustom" speedFactor="0.97" vaporized=""/>
    <tripinfo id="westEastBottom0.6" depart="47.00" departLane="westJunction_0" departPos="5.10" departSpeed="4.10" departDelay="3.43" arrival="233.00" arrivalLane="junctionEast_0" arrivalPos="492.80" arrivalSpeed="7.55" duration="186.00" routeLength="994.90" waitingTime="0.00" waitingCount="0" stopTime="0.00" timeLoss="66.30" rerouteNo="0" devices="tripinfo_westEastBottom0.6 ssm_westEastBottom0.6" vType="carCustom" speedFactor="1.19" vaporized=""/>
    <tripinfo id="westEastTop.6" depart="48.00" departLane="westJunction_1" departPos="5.10" departSpeed="2.67" departDelay="0.45" arrival="237.00" arrivalLane="junctionEast_0" arrivalPos="492.80" arrivalSpeed="8.26" duration="189.00" routeLength="994.90" waitingTime="0.00" waitingCount="0" stopTime="0.00" timeLoss="68.68" rerouteNo="0" devices="tripinfo_westEastTop.6 ssm_westEastTop.6" vType="carCustom" speedFactor="0.96" vaporized=""/>
    <tripinfo id="southEast.7" depart="50.00" departLane="southJunction_0" departPos="5.10" departSpeed="3.97" departDelay="0.68" arrival="243.00" arrivalLane="junctionEast_0" arrivalPos="492.80" arrivalSpeed="7.97" duration="193.00" routeLength="989.53" waitingTime="0.00" waitingCount="0" stopTime="0.00" timeLoss="72.84" rerouteNo="0" devices="tripinfo_southEast.7 ssm_southEast.7" vType="carCustom" speedFactor="0.98" vaporized=""/>
    <tripinfo id="southNorth.5" depart="60.00" departLane="southJunction_1" departPos="5.10" departSpeed="5.77" departDelay="0.44" arrival="244.00" arrivalLane="junctionNorth_0" arrivalPos="492.80" arrivalSpeed="8.29" duration="184.00" routeLength="995.01" waitingTime="20.00" waitingCount="2" stopTime="0.00" timeLoss="64.23" rerouteNo="0" devices="tripinfo_southNorth.5 ssm_southNorth.5" vType="carCustom" speedFactor="0.94" vaporized=""/>
    <tripinfo id="westEastTop.7" depart="56.00" departLane="westJunction_1" departPos="5.10" departSpeed="3.57" departDelay="0.21" arrival="246.00" arrivalLane="junctionEast_0" arrivalPos="492.80" arrivalSpeed="7.33" duration="190.00" routeLength="994.90" waitingTime="0.00" waitingCount="0" stopTime="0.00" timeLoss="69.99" rerouteNo="0" devices="tripinfo_westEastTop.7 ssm_westEastTop.7" vType="carCustom" speedFactor="0.95" vaporized=""/>
    <tripinfo id="westEastBottom0.7" depart="51.00" departLane="westJunction_0" departPos="5.10" departSpeed="2.35" departDelay="5.82" arrival="252.00" arrivalLane="junctionEast_0" arrivalPos="492.80" arrivalSpeed="7.65" duration="201.00" routeLength="994.90" waitingTime="0.00" waitingCount="0" stopTime="0.00" timeLoss="81.30" rerouteNo="0" devices="tripinfo_westEastBottom0.7 ssm_westEastBottom0.7" vType="carCustom" speedFactor="1.01" vaporized=""/>
    <tripinfo id="southEast.8" depart="62.00" departLane="southJunction_0" departPos="5.10" departSpeed="5.76" departDelay="0.72" arrival="255.00" arrivalLane="junctionEast_1" arrivalPos="492.80" arrivalSpeed="7.77" duration="193.00" routeLength="989.53" waitingTime="1.00" waitingCount="1" stopTime="0.00" timeLoss="73.83" rerouteNo="0" devices="tripinfo_southEast.8 ssm_southEast.8" vType="carCustom" speedFactor="1.03" vaporized=""/>
    <tripinfo id="southNorth.6" depart="66.00" departLane="southJunction_1" departPos="5.10" departSpeed="7.18" departDelay="0.63" arrival="255.00" arrivalLane="junctionNorth_0" arrivalPos="492.80" arrivalSpeed="7.81" duration="189.00" routeLength="995.01" waitingTime="11.00" waitingCount="1" stopTime="0.00" timeLoss="69.56" rerouteNo="0" devices="tripinfo_southNorth.6 ssm_southNorth.6" vType="carCustom" speedFactor="1.10" vaporized=""/>
    <tripinfo id="westEastBottom0.8" depart="61.00" departLane="westJunction_0" departPos="5.10" departSpeed="2.33" departDelay="0.66" arrival="261.00" arrivalLane="junctionEast_0" arrivalPos="492.80" arrivalSpeed="8.28" duration="200.00" routeLength="994.90" waitingTime="0.00" waitingCount="0" stopTime="0.00" timeLoss="80.27" rerouteNo="0" devices="tripinfo_westEastBottom0.8 ssm_westEastBottom0.8" vType="carCustom" speedFactor="0.99" vaporized=""/>
    <tripinfo id="southEast.20" depart="168.00" departLane="southJunction_0" departPos="5.10" departSpeed="5.64" departDelay="0.02" arrival="261.00" arrivalLane="junctionEast_0" arrivalPos="492.80" arrivalSpeed="2.51" duration="93.00" routeLength="989.53" waitingTime="0.00" waitingCount="0" stopTime="0.00" timeLoss="32.93" rerouteNo="0" devices="tripinfo_southEast.20 ssm_southEast.20" vType="carCustom" speedFactor="0.86" vaporized="teleport"/>
    <tripinfo id="westEastTop.8" depart="62.00" departLane="westJunction_1" departPos="5.10" departSpeed="3.33" departDelay="0.62" arrival="265.00" arrivalLane="junctionEast_0" arrivalPos="492.80" arrivalSpeed="8.14" duration="203.00" routeLength="994.90" waitingTime="0.00" waitingCount="0" stopTime="0.00" timeLoss="83.11" rerouteNo="0" devices="tripinfo_westEastTop.8 ssm_westEastTop.8" vType="carCustom" speedFactor="1.20" vaporized=""/>
    <tripinfo id="southEast.10" depart="77.00" departLane="southJunction_0" departPos="5.10" departSpeed="6.87" departDelay="0.39" arrival="272.00" arrivalLane="junctionEast_0" arrivalPos="492.80" arrivalSpeed="7.12" duration="195.00" routeLength="989.53" waitingTime="0.00" waitingCount="0" stopTime="0.00" timeLoss="75.55" rerouteNo="0" devices="tripinfo_southEast.10 ssm_southEast.10" vType="carCustom" speedFactor="0.97" vaporized=""/>
    <tripinfo id="westEastBottom0.9" depart="65.00" departLane="westJunction_0" departPos="5.10" departSpeed="2.85" departDelay="2.49" arrival="273.00" arrivalLane="junctionEast_1" arrivalPos="492.80" arrivalSpeed="7.96" duration="208.00" routeLength="994.90" waitingTime="0.00" waitingCount="0" stopTime="0.00" timeLoss="88.55" rerouteNo="0" devices="tripinfo_westEastBottom0.9 ssm_westEastBottom0.9" vType="carCustom" speedFactor="0.89" vaporized=""/>
    <tripinfo id="southNorth.7" depart="69.00" departLane="southJunction_1" departPos="5.10" departSpeed="5.39" departDelay="3.02" arrival="275.00" arrivalLane="junctionNorth_0" arrivalPos="492.80" arrivalSpeed="7.68" duration="206.00" routeLength="995.01" waitingTime="26.00" waitingCount="2" stopTime="0.00" timeLoss="86.17" rerouteNo="0" devices="tripinfo_southNorth.7 ssm_southNorth.7" vType="carCustom" speedFactor="1.01" vaporized=""/>
    <tripinfo id="westEastBottom0.10" depart="95.00" departLane="westJunction_0" departPos="5.10" departSpeed="4.41" departDelay="0.63" arrival="280.00" arrivalLane="junctionEast_0" arrivalPos="492.80" arrivalSpeed="7.58" duration="185.00" routeLength="994.90" waitingTime="0.00" waitingCount="0" stopTime="0.00" timeLoss="65.52" rerouteNo="0" devices="tripinfo_westEastBottom0.10 ssm_westEastBottom0.10" vType="carCustom" speedFactor="1.09" vaporized=""/>
    <tripinfo id="westEastTop.9" depart="66.00" departLane="westJunction_1" departPos="5.10" departSpeed="2.54" departDelay="3.61" arrival="283.00" arrivalLane="junctionEast_1" arrivalPos="492.80" arrivalSpeed="7.46" duration="217.00" routeLength="994.90" waitingTime="0.00" waitingCount="0" stopTime="0.00" timeLoss="97.45" rerouteNo="0" devices="tripinfo_westEastTop.9 ssm_westEastTop.9" vType="carCustom" speedFactor="1.05" vaporized=""/>
    <tripinfo id="southNorth.8" depart="99.00" departLane="southJunction_1" departPos="5.10" departSpeed="4.58" departDelay="0.75" arrival="287.00" arrivalLane="junctionNorth_0" arrivalPos="492.80" arrivalSpeed="8.09" duration="188.00" routeLength="995.01" waitingTime="19.00" waitingCount="2" stopTime="0.00" timeLoss="67.67" rerouteNo="0" devices="tripinfo_southNorth.8 ssm_southNorth.8" vType="carCustom" speedFactor="0.98" vaporized=""/>
    <tripinfo id="southEast.13" depart="95.00" departLane="southJunction_0" departPos="5.10" departSpeed="5.28" departDelay="0.53" arrival="289.00" arrivalLane="junctionEast_0" arrivalPos="492.80" arrivalSpeed="7.48" duration="194.00" routeLength="989.53" waitingTime="0.00" waitingCount="0" stopTime="0.00" timeLoss="74.01" rerouteNo="0" devices="tripinfo_southEast.13 ssm_southEast.13" vType="carCustom" speedFactor="0.99" vaporized=""/>
    <tripinfo id="westEastTop.10" depart="72.00" departLane="westJunction_1" departPos="5.10" departSpeed="2.63" departDelay="9.18" arrival="292.00" arrivalLane="junctionEast_0" arrivalPos="492.80" arrivalSpeed="7.26" duration="220.00" routeLength="994.90" waitingTime="0.00" waitingCount="0" stopTime="0.00" timeLoss="100.57" rerouteNo="0" devices="tripinfo_westEastTop.10 ssm_westEastTop.10" vType="carCustom" speedFactor="1.01" vaporized=""/>
    <tripinfo id="westEastBottom0.20" depart="208.00" departLane="westJunction_0" departPos="5.10" departSpeed="7.54" departDelay="1.37" arrival="294.00" arrivalLane="junctionEast_0" arrivalPos="492.80" arrivalSpeed="2.89" duration="86.00" routeLength="994.90" waitingTime="0.00" waitingCount="0" stopTime="0.00" timeLoss="25.49" rerouteNo="0" devices="tripinfo_westEastBottom0.20 ssm_westEastBottom0.20" vType="carCustom" speedFactor="1.13" vaporized="teleport"/>
    <tripinfo id="southNorth.9" depart="105.00" departLane="southJunction_1" departPos="5.10" departSpeed="6.62" departDelay="0.15" arrival="298.00" arrivalLane="junctionNorth_0" arrivalPos="492.80" arrivalSpeed="8.02" duration="193.00" routeLength="995.01" waitingTime="11.00" waitingCount="2" stopTime="0.00" timeLoss="72.63" rerouteNo="0" devices="tripinfo_southNorth.9 ssm_southNorth.9" vType="carCustom" speedFactor="0.96" vaporized=""/>
    <tripinfo id="southEast.12" depart="86.00" departLane="southJunction_0" departPos="5.10" departSpeed="4.65" departDelay="0.54" arrival="299.00" arrivalLane="junctionEast_0" arrivalPos="492.80" arrivalSpeed="8.02" duration="213.00" routeLength="989.53" waitingTime="0.00" waitingCount="0" stopTime="0.00" timeLoss="92.66" rerouteNo="0" devices="tripinfo_southEast.12 ssm_southEast.12" vType="carCustom" speedFactor="0.74" vaporized=""/>
    <tripinfo id="westEastTop.11" depart="78.00" departLane="westJunction_1" departPos="5.10" departSpeed="1.75" departDelay="14.38" arrival="301.00" arrivalLane="junctionEast_1" arrivalPos="492.80" arrivalSpeed="7.53" duration="223.00" routeLength="994.90" waitingTime="0.00" waitingCount="0" stopTime="0.00" timeLoss="102.80" rerouteNo="0" devices="tripinfo_westEastTop.11 ssm_westEastTop.11" vType="carCustom" speedFactor="0.99" vaporized=""/>
    <tripinfo id="westEastBottom0.12" depart="125.00" departLane="westJunction_0" departPos="5.10" departSpeed="8.16" departDelay="0.98" arrival="307.00" arrivalLane="junctionEast_0" arrivalPos="492.80" arrivalSpeed="7.73" duration="182.00" routeLength="994.90" waitingTime="0.00" waitingCount="0" stopTime="0.00" timeLoss="62.02" rerouteNo="0" devices="tripinfo_westEastBottom0.12 ssm_westEastBottom0.12" vType="carCustom" speedFactor="0.98" vaporized=""/>
    <tripinfo id="southNorth.10" depart="130.00" departLane="southJunction_1" departPos="5.10" departSpeed="4.22" departDelay="0.77" arrival="309.00" arrivalLane="junctionNorth_0" arrivalPos="492.80" arrivalSpeed="7.19" duration="179.00" routeLength="995.01" waitingTime="4.00" waitingCount="1" stopTime="0.00" timeLoss="58.76" rerouteNo="0" devices="tripinfo_southNorth.10 ssm_southNorth.10" vType="carCustom" speedFactor="1.23" vaporized=""/>
    <tripinfo id="westEastTop.12" depart="85.00" departLane="westJunction_1" departPos="5.10" departSpeed="1.57" departDelay="14.01" arrival="310.00" arrivalLane="junctionEast_0" arrivalPos="492.80" arrivalSpeed="7.70" duration="225.00" routeLength="994.90" waitingTime="0.00" waitingCount="0" stopTime="0.00" timeLoss="104.84" rerouteNo="0" devices="tripinfo_westEastTop.12 ssm_westEastTop.12" vType="carCustom" speedFactor="0.96" vaporized=""/>
    <tripinfo id="westEastBottom0.22" depart="215.00" departLane="westJunction_0" departPos="5.10" departSpeed="2.35" departDelay="1.51" arrival="312.00" arrivalLane="junctionEast_0" arrivalPos="492.80" arrivalSpeed="3.62" duration="97.00" routeLength="994.90" waitingTime="0.00" waitingCount="0" stopTime="0.00" timeLoss="36.41" rerouteNo="0" devices="tripinfo_westEastBottom0.22 ssm_westEastBottom0.22" vType="carCustom" speedFactor="1.03" vaporized="teleport"/>
    <tripinfo id="southEast.14" depart="100.00" departLane="southJunction_0" departPos="5.10" departSpeed="5.22" departDelay="0.88" arrival="317.00" arrivalLane="junctionEast_0" arrivalPos="492.80" arrivalSpeed="7.53" duration="217.00" routeLength="989.53" waitingTime="0.00" waitingCount="0" stopTime="0.00" timeLoss="97.08" rerouteNo="0" devices="tripinfo_southEast.14 ssm_southEast.14" vType="carCustom" speedFactor="1.00" vaporized=""/>
    <tripinfo id="westEastTop.13" depart="92.00" departLane="westJunction_1" departPos="5.10" departSpeed="1.77" departDelay="17.06" arrival="319.00" arrivalLane="junctionEast_1" arrivalPos="492.80" arrivalSpeed="7.17" duration="227.00" routeLength="994.90" waitingTime="0.00" waitingCount="0" stopTime="0.00" timeLoss="106.97" rerouteNo="0" devices="tripinfo_westEastTop.13 ssm_westEastTop.13" vType="carCustom" speedFactor="1.00" vaporized=""/>
    <tripinfo id="southNorth.11" depart="133.00" departLane="southJunction_1" departPos="5.10" departSpeed="7.43" departDelay="0.30" arrival="319.00" arrivalLane="junctionNorth_0" arrivalPos="492.80" arrivalSpeed="7.32" duration="186.00" routeLength="995.01" waitingTime="0.00" waitingCount="0" stopTime="0.00" timeLoss="66.33" rerouteNo="0" devices="tripinfo_southNorth.11 ssm_southNorth.11" vType="carCustom" speedFactor="0.94" vaporized=""/>
    <tripinfo id="southEast.15" depart="106.00" departLane="southJunction_0" departPos="5.10" departSpeed="6.31" departDelay="0.58" arrival="325.00" arrivalLane="junctionEast_0" arrivalPos="492.80" arrivalSpeed="7.47" duration="219.00" routeLength="989.53" waitingTime="0.00" waitingCount="0" stopTime="0.00" timeLoss="99.27" rerouteNo="0" devices="tripinfo_southEast.15 ssm_southEast.15" vType="carCustom" speedFactor="1.00" vaporized=""/>
    <tripinfo id="westEastTop.14" depart="99.00" departLane="westJunction_1" departPos="5.10" departSpeed="2.08" departDelay="11.48" arrival="328.00" arrivalLane="junctionEast_1" arrivalPos="492.80" arrivalSpeed="7.40" duration="229.00" routeLength="994.90" waitingTime="0.00" waitingCount="0" stopTime="0.00" timeLoss="108.79" rerouteNo="0" devices="tripinfo_westEastTop.14 ssm_westEastTop.14" vType="carCustom" speedFactor="1.19" vaporized=""/>
    <tripinfo id="southNorth.12" depart="137.00" departLane="southJunction_1" departPos="5.10" departSpeed="4.32" departDelay="0.69" arrival="330.00" arrivalLane="junctionNorth_0" arrivalPos="492.80" arrivalSpeed="7.39" duration="193.00" routeLength="995.01" waitingTime="7.00" waitingCount="1" stopTime="0.00" timeLoss="73.00" rerouteNo="0" devices="tripinfo_southNorth.12 ssm_southNorth.12" vType="carCustom" speedFactor="0.79" vaporized=""/>
    <tripinfo id="southEast.16" depart="119.00" departLane="southJunction_0" departPos="5.10" departSpeed="5.45" departDelay="0.03" arrival="333.00" arrivalLane="junctionEast_0" arrivalPos="492.80" arrivalSpeed="7.42" duration="214.00" routeLength="989.53" waitingTime="0.00" waitingCount="0" stopTime="0.00" timeLoss="94.71" rerouteNo="0" devices="tripinfo_southEast.16 ssm_southEast.16" vType="carCustom" speedFactor="1.04" vaporized=""/>
    <tripinfo id="westEastBottom0.14" depart="143.00" departLane="westJunction_0" departPos="5.10" departSpeed="5.55" departDelay="0.62" arrival="336.00" arrivalLane="junctionEast_0" arrivalPos="492.80" arrivalSpeed="7.74" duration="193.00" routeLength="994.90" waitingTime="0.00" waitingCount="0" stopTime="0.00" timeLoss="73.37" rerouteNo="0" devices="tripinfo_westEastBottom0.14 ssm_westEastBottom0.14" vType="carCustom" speedFactor="1.08" vaporized=""/>