<?xml version="1.0" encoding="UTF-8"?>

<!-- generated on 2025-04-29 05:57:10 by Eclipse SUMO sumo Version 1.20.0
<configuration xmlns:xsi="http://www.w3.org/2001/XMLSchema-instance" xsi:noNamespaceSchemaLocation="http://sumo.dlr.de/xsd/sumoConfiguration.xsd">

    <input>
        <net-file value="nets/2lane_unprotected_right/2lane_unprotected_right.net.xml"/>
        <route-files value="nets/2lane_unprotected_right/2lane_unprotected_right.rou.xml"/>
    </input>

    <output>
        <tripinfo-output value="traces/transs50f1_s50_f0.5_random/0086_tripinfo.xml"/>
        <collision-output value="traces/transs50f1_s50_f0.5_random/0086_collisions.xml"/>
        <statistic-output value="traces/transs50f1_s50_f0.5_random/0086_statistics.xml"/>
    </output>

    <processing>
        <collision.action value="teleport"/>
        <collision.check-junctions value="true"/>
        <time-to-teleport value="-1"/>
        <waiting-time-memory value="1000"/>
        <max-depart-delay value="-1"/>
        <default.speeddev value="0.1"/>
    </processing>

    <report>
        <no-warnings value="true"/>
    </report>

    <ssm_device>
        <device.ssm.probability value="1.0"/>
        <device.ssm.measures value="BR"/>
        <device.ssm.file value="/Users/finn/Code/CausalKnowledgeTransfer-4-SafeRL/traces/transs50f1_s50_f0.5_random/0086_ssm.xml"/>
    </ssm_device>

    <traci_server>
        <remote-port value="63476"/>
    </traci_server>

    <random_number>
        <random value="true"/>
    </random_number>

</configuration>
-->

<tripinfos xmlns:xsi="http://www.w3.org/2001/XMLSchema-instance" xsi:noNamespaceSchemaLocation="http://sumo.dlr.de/xsd/tripinfo_file.xsd">
    <tripinfo id="westEastBottom0.0" depart="3.00" departLane="westJunction_0" departPos="5.10" departSpeed="22.22" departDelay="0.24" arrival="50.00" arrivalLane="junctionEast_0" arrivalPos="492.80" arrivalSpeed="20.95" duration="47.00" routeLength="994.90" waitingTime="0.00" waitingCount="0" stopTime="0.00" timeLoss="1.47" rerouteNo="0" devices="tripinfo_westEastBottom0.0 ssm_westEastBottom0.0" vType="carCustom" speedFactor="1.02" vaporized=""/>
    <tripinfo id="westEastBottom0.1" depart="7.00" departLane="westJunction_0" departPos="5.10" departSpeed="21.23" departDelay="0.55" arrival="54.00" arrivalLane="junctionEast_0" arrivalPos="492.80" arrivalSpeed="21.06" duration="47.00" routeLength="994.90" waitingTime="0.00" waitingCount="0" stopTime="0.00" timeLoss="1.74" rerouteNo="0" devices="tripinfo_westEastBottom0.1 ssm_westEastBottom0.1" vType="carCustom" speedFactor="1.06" vaporized=""/>
    <tripinfo id="westEastTop.0" depart="9.00" departLane="westJunction_1" departPos="5.10" departSpeed="22.22" departDelay="0.96" arrival="56.00" arrivalLane="junctionEast_1" arrivalPos="492.80" arrivalSpeed="20.96" duration="47.00" routeLength="994.90" waitingTime="0.00" waitingCount="0" stopTime="0.00" timeLoss="1.67" rerouteNo="0" devices="tripinfo_westEastTop.0 ssm_westEastTop.0" vType="carCustom" speedFactor="1.06" vaporized=""/>
    <tripinfo id="westEastBottom0.2" depart="9.00" departLane="westJunction_0" departPos="5.10" departSpeed="20.62" departDelay="1.00" arrival="58.00" arrivalLane="junctionEast_0" arrivalPos="492.80" arrivalSpeed="22.11" duration="49.00" routeLength="994.90" waitingTime="0.00" waitingCount="0" stopTime="0.00" timeLoss="3.79" rerouteNo="0" devices="tripinfo_westEastBottom0.2 ssm_westEastBottom0.2" vType="carCustom" speedFactor="1.01" vaporized=""/>
    <tripinfo id="westEastTop.1" depart="11.00" departLane="westJunction_1" departPos="5.10" departSpeed="22.12" departDelay="2.01" arrival="60.00" arrivalLane="junctionEast_1" arrivalPos="492.80" arrivalSpeed="22.15" duration="49.00" routeLength="994.90" waitingTime="0.00" waitingCount="0" stopTime="0.00" timeLoss="3.81" rerouteNo="0" devices="tripinfo_westEastTop.1 ssm_westEastTop.1" vType="carCustom" speedFactor="0.81" vaporized=""/>
    <tripinfo id="westEastBottom0.3" depart="11.00" departLane="westJunction_0" departPos="5.10" departSpeed="15.94" departDelay="1.93" arrival="62.00" arrivalLane="junctionEast_0" arrivalPos="492.80" arrivalSpeed="21.60" duration="51.00" routeLength="994.90" waitingTime="0.00" waitingCount="0" stopTime="0.00" timeLoss="5.95" rerouteNo="0" devices="tripinfo_westEastBottom0.3 ssm_westEastBottom0.3" vType="carCustom" speedFactor="1.08" vaporized=""/>
    <tripinfo id="westEastTop.2" depart="13.00" departLane="westJunction_1" departPos="5.10" departSpeed="16.99" departDelay="1.75" arrival="64.00" arrivalLane="junctionEast_1" arrivalPos="492.80" arrivalSpeed="21.80" duration="51.00" routeLength="994.90" waitingTime="0.00" waitingCount="0" stopTime="0.00" timeLoss="5.81" rerouteNo="0" devices="tripinfo_westEastTop.2 ssm_westEastTop.2" vType="carCustom" speedFactor="0.99" vaporized=""/>
    <tripinfo id="southEast.0" depart="4.00" departLane="southJunction_0" departPos="5.10" departSpeed="22.22" departDelay="0.07" arrival="67.00" arrivalLane="junctionEast_0" arrivalPos="492.80" arrivalSpeed="21.41" duration="63.00" routeLength="989.53" waitingTime="8.00" waitingCount="1" stopTime="0.00" timeLoss="17.36" rerouteNo="0" devices="tripinfo_southEast.0 ssm_southEast.0" vType="carCustom" speedFactor="0.93" vaporized=""/>
    <tripinfo id="westEastTop.3" depart="15.00" departLane="westJunction_1" departPos="5.10" departSpeed="14.10" departDelay="3.67" arrival="68.00" arrivalLane="junctionEast_1" arrivalPos="492.80" arrivalSpeed="21.20" duration="53.00" routeLength="994.90" waitingTime="0.00" waitingCount="0" stopTime="0.00" timeLoss="7.84" rerouteNo="0" devices="tripinfo_westEastTop.3 ssm_westEastTop.3" vType="carCustom" speedFactor="0.97" vaporized=""/>
    <tripinfo id="westEastTop.4" depart="18.00" departLane="westJunction_1" departPos="5.10" departSpeed="12.44" departDelay="0.96" arrival="72.00" arrivalLane="junctionEast_0" arrivalPos="492.80" arrivalSpeed="21.75" duration="54.00" routeLength="994.90" waitingTime="0.00" waitingCount="0" stopTime="0.00" timeLoss="8.89" rerouteNo="0" devices="tripinfo_westEastTop.4 ssm_westEastTop.4" vType="carCustom" speedFactor="0.94" vaporized=""/>
    <tripinfo id="westEastTop.5" depart="20.00" departLane="westJunction_1" departPos="5.10" departSpeed="12.45" departDelay="0.76" arrival="76.00" arrivalLane="junctionEast_1" arrivalPos="492.80" arrivalSpeed="22.07" duration="56.00" routeLength="994.90" waitingTime="0.00" waitingCount="0" stopTime="0.00" timeLoss="10.58" rerouteNo="0" devices="tripinfo_westEastTop.5 ssm_westEastTop.5" vType="carCustom" speedFactor="1.09" vaporized=""/>
    <tripinfo id="southEast.1" depart="11.00" departLane="southJunction_0" departPos="5.10" departSpeed="21.53" departDelay="0.79" arrival="77.00" arrivalLane="junctionEast_0" arrivalPos="492.80" arrivalSpeed="21.27" duration="66.00" routeLength="989.53" waitingTime="5.00" waitingCount="1" stopTime="0.00" timeLoss="20.20" rerouteNo="0" devices="tripinfo_southEast.1 ssm_southEast.1" vType="carCustom" speedFactor="1.05" vaporized=""/>
    <tripinfo id="westEastBottom0.4" depart="25.00" departLane="westJunction_0" departPos="5.10" departSpeed="19.04" departDelay="0.54" arrival="80.00" arrivalLane="junctionEast_1" arrivalPos="492.80" arrivalSpeed="21.41" duration="55.00" routeLength="994.90" waitingTime="0.00" waitingCount="0" stopTime="0.00" timeLoss="9.52" rerouteNo="0" devices="tripinfo_westEastBottom0.4 ssm_westEastBottom0.4" vType="carCustom" speedFactor="0.89" vaporized=""/>
    <tripinfo id="southEast.2" depart="15.00" departLane="southJunction_0" departPos="5.10" departSpeed="21.81" departDelay="0.71" arrival="81.00" arrivalLane="junctionEast_0" arrivalPos="492.80" arrivalSpeed="22.18" duration="66.00" routeLength="989.53" waitingTime="4.00" waitingCount="1" stopTime="0.00" timeLoss="19.81" rerouteNo="0" devices="tripinfo_southEast.2 ssm_southEast.2" vType="carCustom" speedFactor="0.90" vaporized=""/>
    <tripinfo id="southNorth.0" depart="26.00" departLane="southJunction_1" departPos="5.10" departSpeed="22.22" departDelay="0.62" arrival="82.00" arrivalLane="junctionNorth_0" arrivalPos="492.80" arrivalSpeed="21.45" duration="56.00" routeLength="995.01" waitingTime="1.00" waitingCount="1" stopTime="0.00" timeLoss="10.52" rerouteNo="0" devices="tripinfo_southNorth.0 ssm_southNorth.0" vType="carCustom" speedFactor="0.83" vaporized=""/>
    <tripinfo id="southEast.3" depart="21.00" departLane="southJunction_0" departPos="5.10" departSpeed="22.13" departDelay="0.93" arrival="85.00" arrivalLane="junctionEast_0" arrivalPos="492.80" arrivalSpeed="21.11" duration="64.00" routeLength="989.53" waitingTime="0.00" waitingCount="0" stopTime="0.00" timeLoss="17.98" rerouteNo="0" devices="tripinfo_southEast.3 ssm_southEast.3" vType="carCustom" speedFactor="0.90" vaporized=""/>
    <tripinfo id="southNorth.1" depart="28.00" departLane="southJunction_1" departPos="5.10" departSpeed="22.12" departDelay="2.43" arrival="86.00" arrivalLane="junctionNorth_0" arrivalPos="492.80" arrivalSpeed="21.28" duration="58.00" routeLength="995.01" waitingTime="0.00" waitingCount="0" stopTime="0.00" timeLoss="12.41" rerouteNo="0" devices="tripinfo_southNorth.1 ssm_southNorth.1" vType="carCustom" speedFactor="1.12" vaporized=""/>
    <tripinfo id="westEastTop.6" depart="22.00" departLane="westJunction_1" departPos="5.10" departSpeed="10.16" departDelay="1.25" arrival="87.00" arrivalLane="junctionEast_1" arrivalPos="492.80" arrivalSpeed="21.75" duration="65.00" routeLength="994.90" waitingTime="0.00" waitingCount="0" stopTime="0.00" timeLoss="19.75" rerouteNo="0" devices="tripinfo_westEastTop.6 ssm_westEastTop.6" vType="carCustom" speedFactor="0.81" vaporized=""/>
    <tripinfo id="southEast.4" depart="23.00" departLane="southJunction_0" departPos="5.10" departSpeed="21.11" departDelay="1.76" arrival="88.00" arrivalLane="junctionEast_0" arrivalPos="492.80" arrivalSpeed="21.81" duration="65.00" routeLength="989.53" waitingTime="0.00" waitingCount="0" stopTime="0.00" timeLoss="19.74" rerouteNo="0" devices="tripinfo_southEast.4 ssm_southEast.4" vType="carCustom" speedFactor="1.05" vaporized=""/>
    <tripinfo id="westEastTop.7" depart="24.00" departLane="westJunction_1" departPos="5.10" departSpeed="8.29" departDelay="2.58" arrival="91.00" arrivalLane="junctionEast_1" arrivalPos="492.80" arrivalSpeed="22.09" duration="67.00" routeLength="994.90" waitingTime="0.00" waitingCount="0" stopTime="0.00" timeLoss="21.66" rerouteNo="0" devices="tripinfo_westEastTop.7 ssm_westEastTop.7" vType="carCustom" speedFactor="0.92" vaporized=""/>
    <tripinfo id="southNorth.2" depart="39.00" departLane="southJunction_1" departPos="5.10" departSpeed="20.04" departDelay="0.93" arrival="91.00" arrivalLane="junctionNorth_0" arrivalPos="492.80" arrivalSpeed="21.45" duration="52.00" routeLength="995.01" waitingTime="0.00" waitingCount="0" stopTime="0.00" timeLoss="6.59" rerouteNo="0" devices="tripinfo_southNorth.2 ssm_southNorth.2" vType="carCustom" speedFactor="1.01" vaporized=""/>
    <tripinfo id="southEast.5" depart="25.00" departLane="southJunction_0" departPos="5.10" departSpeed="17.24" departDelay="3.42" arrival="92.00" arrivalLane="junctionEast_0" arrivalPos="492.80" arrivalSpeed="21.68" duration="67.00" routeLength="989.53" waitingTime="0.00" waitingCount="0" stopTime="0.00" timeLoss="20.93" rerouteNo="0" devices="tripinfo_southEast.5 ssm_southEast.5" vType="carCustom" speedFactor="0.97" vaporized=""/>
    <tripinfo id="southEast.6" depart="30.00" departLane="southJunction_0" departPos="5.10" departSpeed="16.64" departDelay="0.47" arrival="96.00" arrivalLane="junctionEast_0" arrivalPos="492.80" arrivalSpeed="21.37" duration="66.00" routeLength="989.53" waitingTime="0.00" waitingCount="0" stopTime="0.00" timeLoss="19.44" rerouteNo="0" devices="tripinfo_southEast.6 ssm_southEast.6" vType="carCustom" speedFactor="0.86" vaporized=""/>
    <tripinfo id="westEastTop.8" depart="27.00" departLane="westJunction_1" departPos="5.10" departSpeed="8.12" departDelay="2.00" arrival="98.00" arrivalLane="junctionEast_1" arrivalPos="492.80" arrivalSpeed="22.09" duration="71.00" routeLength="994.90" waitingTime="2.00" waitingCount="1" stopTime="0.00" timeLoss="25.87" rerouteNo="0" devices="tripinfo_westEastTop.8 ssm_westEastTop.8" vType="carCustom" speedFactor="1.13" vaporized=""/>
    <tripinfo id="southEast.7" depart="42.00" departLane="southJunction_0" departPos="5.10" departSpeed="18.49" departDelay="1.00" arrival="100.00" arrivalLane="junctionEast_0" arrivalPos="492.80" arrivalSpeed="21.35" duration="58.00" routeLength="989.53" waitingTime="0.00" waitingCount="0" stopTime="0.00" timeLoss="11.35" rerouteNo="0" devices="tripinfo_southEast.7 ssm_southEast.7" vType="carCustom" speedFactor="0.88" vaporized=""/>
    <tripinfo id="westEastTop.9" depart="30.00" departLane="westJunction_1" departPos="5.10" departSpeed="8.80" departDelay="4.91" arrival="102.00" arrivalLane="junctionEast_1" arrivalPos="492.80" arrivalSpeed="21.36" duration="72.00" routeLength="994.90" waitingTime="0.00" waitingCount="0" stopTime="0.00" timeLoss="26.75" rerouteNo="0" devices="tripinfo_westEastTop.9 ssm_westEastTop.9" vType="carCustom" speedFactor="0.92" vaporized=""/>
    <tripinfo id="westEastBottom0.5" depart="39.00" departLane="westJunction_0" departPos="5.10" departSpeed="18.71" departDelay="0.31" arrival="105.00" arrivalLane="junctionEast_0" arrivalPos="492.80" arrivalSpeed="21.68" duration="66.00" routeLength="994.90" waitingTime="0.00" waitingCount="0" stopTime="0.00" timeLoss="20.92" rerouteNo="0" devices="tripinfo_westEastBottom0.5 ssm_westEastBottom0.5" vType="carCustom" speedFactor="1.08" vaporized=""/>
    <tripinfo id="westEastTop.10" depart="32.00" departLane="westJunction_1" departPos="5.10" departSpeed="8.94" departDelay="1.10" arrival="109.00" arrivalLane="junctionEast_0" arrivalPos="492.80" arrivalSpeed="21.25" duration="77.00" routeLength="994.90" waitingTime="0.00" waitingCount="0" stopTime="0.00" timeLoss="31.53" rerouteNo="0" devices="tripinfo_westEastTop.10 ssm_westEastTop.10" vType="carCustom" speedFactor="1.10" vaporized=""/>
    <tripinfo id="westEastTop.11" depart="35.00" departLane="westJunction_1" departPos="5.10" departSpeed="7.19" departDelay="3.56" arrival="110.00" arrivalLane="junctionEast_0" arrivalPos="492.80" arrivalSpeed="21.81" duration="75.00" routeLength="994.90" waitingTime="0.00" waitingCount="0" stopTime="0.00" timeLoss="29.61" rerouteNo="0" devices="tripinfo_westEastTop.11 ssm_westEastTop.11" vType="carCustom" speedFactor="1.00" vaporized=""/>
    <tripinfo id="southEast.8" depart="59.00" departLane="southJunction_0" departPos="5.10" departSpeed="19.38" departDelay="0.55" arrival="113.00" arrivalLane="junctionEast_0" arrivalPos="492.80" arrivalSpeed="21.06" duration="54.00" routeLength="989.53" waitingTime="0.00" waitingCount="0" stopTime="0.00" timeLoss="8.89" rerouteNo="0" devices="tripinfo_southEast.8 ssm_southEast.8" vType="carCustom" speedFactor="1.12" vaporized=""/>
    <tripinfo id="westEastTop.12" depart="46.00" departLane="westJunction_1" departPos="5.10" departSpeed="11.27" departDelay="0.98" arrival="114.00" arrivalLane="junctionEast_0" arrivalPos="492.80" arrivalSpeed="21.27" duration="68.00" routeLength="994.90" waitingTime="0.00" waitingCount="0" stopTime="0.00" timeLoss="22.38" rerouteNo="0" devices="tripinfo_westEastTop.12 ssm_westEastTop.12" vType="carCustom" speedFactor="0.90" vaporized=""/>
    <tripinfo id="westEastTop.13" depart="50.00" departLane="westJunction_1" departPos="5.10" departSpeed="18.99" departDelay="0.38" arrival="117.00" arrivalLane="junctionEast_1" arrivalPos="492.80" arrivalSpeed="22.07" duration="67.00" routeLength="994.90" waitingTime="0.00" waitingCount="0" stopTime="0.00" timeLoss="22.04" rerouteNo="0" devices="tripinfo_westEastTop.13 ssm_westEastTop.13" vType="carCustom" speedFactor="0.98" vaporized=""/>
    <tripinfo id="westEastBottom0.6" depart="67.00" departLane="westJunction_0" departPos="5.10" departSpeed="22.22" departDelay="0.74" arrival="121.00" arrivalLane="junctionEast_0" arrivalPos="492.80" arrivalSpeed="21.00" duration="54.00" routeLength="994.90" waitingTime="0.00" waitingCount="0" stopTime="0.00" timeLoss="8.61" rerouteNo="0" devices="tripinfo_westEastBottom0.6 ssm_westEastBottom0.6" vType="carCustom" speedFactor="0.98" vaporized=""/>
    <tripinfo id="westEastTop.14" depart="56.00" departLane="westJunction_1" departPos="5.10" departSpeed="16.44" departDelay="0.83" arrival="123.00" arrivalLane="junctionEast_0" arrivalPos="492.80" arrivalSpeed="22.14" duration="67.00" routeLength="994.90" waitingTime="0.00" waitingCount="0" stopTime="0.00" timeLoss="21.87" rerouteNo="0" devices="tripinfo_westEastTop.14 ssm_westEastTop.14" vType="carCustom" speedFactor="1.06" vaporized=""/>
    <tripinfo id="westEastTop.15" depart="61.00" departLane="westJunction_1" departPos="5.10" departSpeed="18.43" departDelay="0.63" arrival="125.00" arrivalLane="junctionEast_1" arrivalPos="492.80" arrivalSpeed="22.01" duration="64.00" routeLength="994.90" waitingTime="0.00" waitingCount="0" stopTime="0.00" timeLoss="18.78" rerouteNo="0" devices="tripinfo_westEastTop.15 ssm_westEastTop.15" vType="carCustom" speedFactor="0.97" vaporized=""/>
    <tripinfo id="westEastTop.16" depart="67.00" departLane="westJunction_1" departPos="5.10" departSpeed="19.54" departDelay="0.27" arrival="127.00" arrivalLane="junctionEast_0" arrivalPos="492.80" arrivalSpeed="21.62" duration="60.00" routeLength="994.90" waitingTime="0.00" waitingCount="0" stopTime="0.00" timeLoss="15.22" rerouteNo="0" devices="tripinfo_westEastTop.16 ssm_westEastTop.16" vType="carCustom" speedFactor="1.23" vaporized=""/>
    <tripinfo id="southEast.9" depart="74.00" departLane="southJunction_0" departPos="5.10" departSpeed="21.37" departDelay="0.54" arrival="129.00" arrivalLane="junctionEast_1" arrivalPos="492.80" arrivalSpeed="21.32" duration="55.00" routeLength="989.53" waitingTime="0.00" waitingCount="0" stopTime="0.00" timeLoss="9.68" rerouteNo="0" devices="tripinfo_southEast.9 ssm_southEast.9" vType="carCustom" speedFactor="1.01" vaporized=""/>
    <tripinfo id="southNorth.3" depart="64.00" departLane="southJunction_1" departPos="5.10" departSpeed="6.50" departDelay="0.80" arrival="130.00" arrivalLane="junctionNorth_0" arrivalPos="492.80" arrivalSpeed="21.46" duration="66.00" routeLength="995.01" waitingTime="8.00" waitingCount="1" stopTime="0.00" timeLoss="21.02" rerouteNo="0" devices="tripinfo_southNorth.3 ssm_southNorth.3" vType="carCustom" speedFactor="1.05" vaporized=""/>
    <tripinfo id="westEastBottom0.7" depart="75.00" departLane="westJunction_0" departPos="5.10" departSpeed="21.38" departDelay="0.16" arrival="134.00" arrivalLane="junctionEast_0" arrivalPos="492.80" arrivalSpeed="21.19" duration="59.00" routeLength="994.90" waitingTime="1.00" waitingCount="1" stopTime="0.00" timeLoss="14.06" rerouteNo="0" devices="tripinfo_westEastBottom0.7 ssm_westEastBottom0.7" vType="carCustom" speedFactor="0.99" vaporized=""/>
    <tripinfo id="westEastTop.17" depart="78.00" departLane="westJunction_1" departPos="5.10" departSpeed="17.30" departDelay="0.55" arrival="138.00" arrivalLane="junctionEast_0" arrivalPos="492.80" arrivalSpeed="21.09" duration="60.00" routeLength="994.90" waitingTime="0.00" waitingCount="0" stopTime="0.00" timeLoss="14.77" rerouteNo="0" devices="tripinfo_westEastTop.17 ssm_westEastTop.17" vType="carCustom" speedFactor="0.97" vaporized=""/>
    <tripinfo id="southNorth.4" depart="66.00" departLane="southJunction_1" departPos="5.10" departSpeed="11.29" departDelay="2.42" arrival="139.00" arrivalLane="junctionNorth_0" arrivalPos="492.80" arrivalSpeed="21.70" duration="73.00" routeLength="995.01" waitingTime="7.00" waitingCount="2" stopTime="0.00" timeLoss="27.44" rerouteNo="0" devices="tripinfo_southNorth.4 ssm_southNorth.4" vType="carCustom" speedFactor="1.15" vaporized=""/>
    <tripinfo id="southEast.10" depart="86.00" departLane="southJunction_0" departPos="5.10" departSpeed="20.81" departDelay="0.88" arrival="142.00" arrivalLane="junctionEast_0" arrivalPos="492.80" arrivalSpeed="21.25" duration="56.00" routeLength="989.53" waitingTime="0.00" waitingCount="0" stopTime="0.00" timeLoss="10.45" rerouteNo="0" devices="tripinfo_southEast.10 ssm_southEast.10" vType="carCustom" speedFactor="1.01" vaporized=""/>
    <tripinfo id="southNorth.5" depart="68.00" departLane="southJunction_1" departPos="5.10" departSpeed="9.64" departDelay="2.79" arrival="143.00" arrivalLane="junctionNorth_0" arrivalPos="492.80" arrivalSpeed="21.56" duration="75.00" routeLength="995.01" waitingTime="4.00" waitingCount="1" stopTime="0.00" timeLoss="29.35" rerouteNo="0" devices="tripinfo_southNorth.5 ssm_southNorth.5" vType="carCustom" speedFactor="0.94" vaporized=""/>
    <tripinfo id="westEastTop.18" depart="80.00" departLane="westJunction_1" departPos="5.10" departSpeed="21.71" departDelay="1.48" arrival="143.00" arrivalLane="junctionEast_1" arrivalPos="492.80" arrivalSpeed="22.05" duration="63.00" routeLength="994.90" waitingTime="1.00" waitingCount="1" stopTime="0.00" timeLoss="18.20" rerouteNo="0" devices="tripinfo_westEastTop.18 ssm_westEastTop.18" vType="carCustom" speedFactor="0.91" vaporized=""/>
    <tripinfo id="westEastBottom0.8" depart="83.00" departLane="westJunction_0" departPos="5.10" departSpeed="16.38" departDelay="0.73" arrival="147.00" arrivalLane="junctionEast_0" arrivalPos="492.80" arrivalSpeed="21.33" duration="64.00" routeLength="994.90" waitingTime="0.00" waitingCount="0" stopTime="0.00" timeLoss="19.04" rerouteNo="0" devices="tripinfo_westEastBottom0.8 ssm_westEastBottom0.8" vType="carCustom" speedFactor="0.98" vaporized=""/>
    <tripinfo id="southNorth.6" depart="77.00" departLane="southJunction_1" departPos="5.10" departSpeed="16.93" departDelay="0.82" arrival="150.00" arrivalLane="junctionNorth_0" arrivalPos="492.80" arrivalSpeed="22.22" duration="73.00" routeLength="995.01" waitingTime="4.00" waitingCount="2" stopTime="0.00" timeLoss="27.47" rerouteNo="0" devices="tripinfo_southNorth.6 ssm_southNorth.6" vType="carCustom" speedFactor="1.02" vaporized=""/>
    <tripinfo id="southEast.11" depart="88.00" departLane="southJunction_0" departPos="5.10" departSpeed="19.88" departDelay="2.67" arrival="150.00" arrivalLane="junctionEast_0" arrivalPos="492.80" arrivalSpeed="21.66" duration="62.00" routeLength="989.53" waitingTime="0.00" waitingCount="0" stopTime="0.00" timeLoss="15.95" rerouteNo="0" devices="tripinfo_southEast.11 ssm_southEast.11" vType="carCustom" speedFactor="0.76" vaporized=""/>
    <tripinfo id="southNorth.7" depart="81.00" departLane="southJunction_1" departPos="5.10" departSpeed="20.84" departDelay="0.42" arrival="154.00" arrivalLane="junctionNorth_0" arrivalPos="492.80" arrivalSpeed="22.00" duration="73.00" routeLength="995.01" waitingTime="0.00" waitingCount="0" stopTime="0.00" timeLoss="27.30" rerouteNo="0" devices="tripinfo_southNorth.7 ssm_southNorth.7" vType="carCustom" speedFactor="0.88" vaporized=""/>
    <tripinfo id="westEastBottom0.9" depart="86.00" departLane="westJunction_0" departPos="5.10" departSpeed="19.75" departDelay="0.51" arrival="154.00" arrivalLane="junctionEast_1" arrivalPos="492.80" arrivalSpeed="22.00" duration="68.00" routeLength="994.90" waitingTime="1.00" waitingCount="1" stopTime="0.00" timeLoss="22.74" rerouteNo="0" devices="tripinfo_westEastBottom0.9 ssm_westEastBottom0.9" vType="carCustom" speedFactor="1.14" vaporized=""/>
    <tripinfo id="southEast.12" depart="90.00" departLane="southJunction_0" departPos="5.10" departSpeed="16.04" departDelay="2.74" arrival="154.00" arrivalLane="junctionEast_0" arrivalPos="492.80" arrivalSpeed="21.32" duration="64.00" routeLength="989.53" waitingTime="0.00" waitingCount="0" stopTime="0.00" timeLoss="17.70" rerouteNo="0" devices="tripinfo_southEast.12 ssm_southEast.12" vType="carCustom" speedFactor="1.15" vaporized=""/>
    <tripinfo id="westEastTop.19" depart="90.00" departLane="westJunction_1" departPos="5.10" departSpeed="15.23" departDelay="0.73" arrival="158.00" arrivalLane="junctionEast_1" arrivalPos="492.80" arrivalSpeed="22.10" duration="68.00" routeLength="994.90" waitingTime="0.00" waitingCount="0" stopTime="0.00" timeLoss="22.68" rerouteNo="0" devices="tripinfo_westEastTop.19 ssm_westEastTop.19" vType="carCustom" speedFactor="0.98" vaporized=""/>
    <tripinfo id="westEastBottom0.10" depart="104.00" departLane="westJunction_0" departPos="5.10" departSpeed="22.22" departDelay="0.79" arrival="158.00" arrivalLane="junctionEast_0" arrivalPos="492.80" arrivalSpeed="21.06" duration="54.00" routeLength="994.90" waitingTime="0.00" waitingCount="0" stopTime="0.00" timeLoss="8.88" rerouteNo="0" devices="tripinfo_westEastBottom0.10 ssm_westEastBottom0.10" vType="carCustom" speedFactor="1.04" vaporized=""/>
    <tripinfo id="westEastTop.20" depart="95.00" departLane="westJunction_1" departPos="5.10" departSpeed="17.60" departDelay="0.18" arrival="162.00" arrivalLane="junctionEast_1" arrivalPos="492.80" arrivalSpeed="21.10" duration="67.00" routeLength="994.90" waitingTime="0.00" waitingCount="0" stopTime="0.00" timeLoss="21.56" rerouteNo="0" devices="tripinfo_westEastTop.20 ssm_westEastTop.20" vType="carCustom" speedFactor="0.97" vaporized=""/>
    <tripinfo id="southEast.13" depart="101.00" departLane="southJunction_0" departPos="5.10" departSpeed="16.79" departDelay="1.00" arrival="162.00" arrivalLane="junctionEast_0" arrivalPos="492.80" arrivalSpeed="21.29" duration="61.00" routeLength="989.53" waitingTime="0.00" waitingCount="0" stopTime="0.00" timeLoss="15.43" rerouteNo="0" devices="tripinfo_southEast.13 ssm_southEast.13" vType="carCustom" speedFactor="0.93" vaporized=""/>
    <tripinfo id="westEastTop.21" depart="101.00" departLane="westJunction_1" departPos="5.10" departSpeed="18.01" departDelay="0.88" arrival="165.00" arrivalLane="junctionEast_1" arrivalPos="492.80" arrivalSpeed="21.16" duration="64.00" routeLength="994.90" waitingTime="0.00" waitingCount="0" stopTime="0.00" timeLoss="19.19" rerouteNo="0" devices="tripinfo_westEastTop.21 ssm_westEastTop.21" vType="carCustom" speedFactor="0.96" vaporized=""/>
    <tripinfo id="southEast.14" depart="106.00" departLane="southJunction_0" departPos="5.10" departSpeed="21.60" departDelay="0.79" arrival="166.00" arrivalLane="junctionEast_0" arrivalPos="492.80" arrivalSpeed="21.01" duration="60.00" routeLength="989.53" waitingTime="0.00" waitingCount="0" stopTime="0.00" timeLoss="13.59" rerouteNo="0" devices="tripinfo_southEast.14 ssm_southEast.14" vType="carCustom" speedFactor="0.93" vaporized=""/>
    <tripinfo id="westEastTop.22" depart="103.00" departLane="westJunction_1" departPos="5.10" departSpeed="21.49" departDelay="2.01" arrival="169.00" arrivalLane="junctionEast_1" arrivalPos="492.80" arrivalSpeed="21.23" duration="66.00" routeLength="994.90" waitingTime="0.00" waitingCount="0" stopTime="0.00" timeLoss="20.74" rerouteNo="0" devices="tripinfo_westEastTop.22 ssm_westEastTop.22" vType="carCustom" speedFactor="0.79" vaporized=""/>
    <tripinfo id="westEastBottom0.11" depart="108.00" departLane="westJunction_0" departPos="5.10" departSpeed="19.61" departDelay="0.07" arrival="170.00" arrivalLane="junctionEast_0" arrivalPos="492.80" arrivalSpeed="21.95" duration="62.00" routeLength="994.90" waitingTime="0.00" waitingCount="0" stopTime="0.00" timeLoss="16.34" rerouteNo="0" devices="tripinfo_westEastBottom0.11 ssm_westEastBottom0.11" vType="carCustom" speedFactor="1.11" vaporized=""/>
    <tripinfo id="southNorth.8" depart="83.00" departLane="southJunction_1" departPos="5.10" departSpeed="21.05" departDelay="1.23" arrival="171.00" arrivalLane="junctionNorth_0" arrivalPos="492.80" arrivalSpeed="21.79" duration="88.00" routeLength="995.01" waitingTime="15.00" waitingCount="1" stopTime="0.00" timeLoss="42.70" rerouteNo="0" devices="tripinfo_southNorth.8 ssm_southNorth.8" vType="carCustom" speedFactor="0.98" vaporized=""/>
    <tripinfo id="westEastTop.23" depart="105.00" departLane="westJunction_1" departPos="5.10" departSpeed="17.10" departDelay="1.29" arrival="173.00" arrivalLane="junctionEast_1" arrivalPos="492.80" arrivalSpeed="21.47" duration="68.00" routeLength="994.90" waitingTime="0.00" waitingCount="0" stopTime="0.00" timeLoss="22.34" rerouteNo="0" devices="tripinfo_westEastTop.23 ssm_westEastTop.23" vType="carCustom" speedFactor="1.02" vaporized=""/>
    <tripinfo id="southNorth.9" depart="90.00" departLane="southJunction_1" departPos="5.10" departSpeed="18.35" departDelay="0.47" arrival="175.00" arrivalLane="junctionNorth_0" arrivalPos="492.80" arrivalSpeed="21.97" duration="85.00" routeLength="995.01" waitingTime="13.00" waitingCount="1" stopTime="0.00" timeLoss="39.57" rerouteNo="0" devices="tripinfo_southNorth.9 ssm_southNorth.9" vType="carCustom" speedFactor="1.13" vaporized=""/>
    <tripinfo id="westEastBottom0.18" depart="148.00" departLane="westJunction_0" departPos="5.10" departSpeed="21.68" departDelay="0.10" arrival="176.00" arrivalLane="junctionEast_0" arrivalPos="492.80" arrivalSpeed="15.30" duration="28.00" routeLength="994.90" waitingTime="0.00" waitingCount="0" stopTime="0.00" timeLoss="5.22" rerouteNo="0" devices="tripinfo_westEastBottom0.18 ssm_westEastBottom0.18" vType="carCustom" speedFactor="1.10" vaporized="teleport"/>
    <tripinfo id="westEastTop.24" depart="107.00" departLane="westJunction_1" departPos="5.10" departSpeed="13.47" departDelay="1.99" arrival="177.00" arrivalLane="junctionEast_1" arrivalPos="492.80" arrivalSpeed="21.61" duration="70.00" routeLength="994.90" waitingTime="1.00" waitingCount="1" stopTime="0.00" timeLoss="24.49" rerouteNo="0" devices="tripinfo_westEastTop.24 ssm_westEastTop.24" vType="carCustom" speedFactor="1.19" vaporized=""/>