<?xml version="1.0" encoding="UTF-8"?>

<!-- generated on 2025-04-29 05:57:57 by Eclipse SUMO sumo Version 1.20.0
<configuration xmlns:xsi="http://www.w3.org/2001/XMLSchema-instance" xsi:noNamespaceSchemaLocation="http://sumo.dlr.de/xsd/sumoConfiguration.xsd">

    <input>
        <net-file value="nets/2lane_unprotected_right/2lane_unprotected_right.net.xml"/>
        <route-files value="nets/2lane_unprotected_right/2lane_unprotected_right.rou.xml"/>
    </input>

    <output>
        <tripinfo-output value="traces/transs50f1_s50_f0.5_random/0087_tripinfo.xml"/>
        <collision-output value="traces/transs50f1_s50_f0.5_random/0087_collisions.xml"/>
        <statistic-output value="traces/transs50f1_s50_f0.5_random/0087_statistics.xml"/>
    </output>

    <processing>
        <collision.action value="teleport"/>
        <collision.check-junctions value="true"/>
        <time-to-teleport value="-1"/>
        <waiting-time-memory value="1000"/>
        <max-depart-delay value="-1"/>
        <default.speeddev value="0.1"/>
    </processing>

    <report>
        <no-warnings value="true"/>
    </report>

    <ssm_device>
        <device.ssm.probability value="1.0"/>
        <device.ssm.measures value="BR"/>
        <device.ssm.file value="/Users/finn/Code/CausalKnowledgeTransfer-4-SafeRL/traces/transs50f1_s50_f0.5_random/0087_ssm.xml"/>
    </ssm_device>

    <traci_server>
        <remote-port value="63488"/>
    </traci_server>

    <random_number>
        <random value="true"/>
    </random_number>

</configuration>
-->

<tripinfos xmlns:xsi="http://www.w3.org/2001/XMLSchema-instance" xsi:noNamespaceSchemaLocation="http://sumo.dlr.de/xsd/tripinfo_file.xsd">
    <tripinfo id="westEastTop.0" depart="1.00" departLane="westJunction_1" departPos="5.10" departSpeed="22.22" departDelay="0.89" arrival="48.00" arrivalLane="junctionEast_0" arrivalPos="492.80" arrivalSpeed="21.69" duration="47.00" routeLength="994.90" waitingTime="0.00" waitingCount="0" stopTime="0.00" timeLoss="1.27" rerouteNo="0" devices="tripinfo_westEastTop.0 ssm_westEastTop.0" vType="carCustom" speedFactor="0.92" vaporized=""/>
    <tripinfo id="southNorth.0" depart="1.00" departLane="southJunction_1" departPos="5.10" departSpeed="22.22" departDelay="0.91" arrival="50.00" arrivalLane="junctionNorth_0" arrivalPos="492.80" arrivalSpeed="21.45" duration="49.00" routeLength="995.01" waitingTime="0.00" waitingCount="0" stopTime="0.00" timeLoss="3.49" rerouteNo="0" devices="tripinfo_southNorth.0 ssm_southNorth.0" vType="carCustom" speedFactor="0.95" vaporized=""/>
    <tripinfo id="southEast.0" depart="1.00" departLane="southJunction_0" departPos="5.10" departSpeed="22.22" departDelay="0.83" arrival="54.00" arrivalLane="junctionEast_0" arrivalPos="492.80" arrivalSpeed="21.20" duration="53.00" routeLength="989.53" waitingTime="0.00" waitingCount="0" stopTime="0.00" timeLoss="7.56" rerouteNo="0" devices="tripinfo_southEast.0 ssm_southEast.0" vType="carCustom" speedFactor="1.04" vaporized=""/>
    <tripinfo id="westEastTop.1" depart="7.00" departLane="westJunction_1" departPos="5.10" departSpeed="21.48" departDelay="0.72" arrival="55.00" arrivalLane="junctionEast_1" arrivalPos="492.80" arrivalSpeed="21.86" duration="48.00" routeLength="994.90" waitingTime="0.00" waitingCount="0" stopTime="0.00" timeLoss="2.77" rerouteNo="0" devices="tripinfo_westEastTop.1 ssm_westEastTop.1" vType="carCustom" speedFactor="1.11" vaporized=""/>
    <tripinfo id="westEastBottom0.0" depart="7.00" departLane="westJunction_0" departPos="5.10" departSpeed="22.22" departDelay="0.58" arrival="57.00" arrivalLane="junctionEast_0" arrivalPos="492.80" arrivalSpeed="21.59" duration="50.00" routeLength="994.90" waitingTime="0.00" waitingCount="0" stopTime="0.00" timeLoss="5.00" rerouteNo="0" devices="tripinfo_westEastBottom0.0 ssm_westEastBottom0.0" vType="carCustom" speedFactor="0.89" vaporized=""/>
    <tripinfo id="westEastTop.2" depart="9.00" departLane="westJunction_1" departPos="5.10" departSpeed="21.63" departDelay="0.95" arrival="58.00" arrivalLane="junctionEast_1" arrivalPos="492.80" arrivalSpeed="22.22" duration="49.00" routeLength="994.90" waitingTime="0.00" waitingCount="0" stopTime="0.00" timeLoss="3.81" rerouteNo="0" devices="tripinfo_westEastTop.2 ssm_westEastTop.2" vType="carCustom" speedFactor="0.94" vaporized=""/>
    <tripinfo id="southEast.1" depart="6.00" departLane="southJunction_0" departPos="5.10" departSpeed="22.17" departDelay="0.22" arrival="63.00" arrivalLane="junctionEast_0" arrivalPos="492.80" arrivalSpeed="21.50" duration="57.00" routeLength="989.53" waitingTime="1.00" waitingCount="1" stopTime="0.00" timeLoss="11.27" rerouteNo="0" devices="tripinfo_southEast.1 ssm_southEast.1" vType="carCustom" speedFactor="1.06" vaporized=""/>
    <tripinfo id="westEastBottom0.1" depart="17.00" departLane="westJunction_0" departPos="5.10" departSpeed="21.63" departDelay="0.23" arrival="63.00" arrivalLane="junctionEast_1" arrivalPos="492.80" arrivalSpeed="21.90" duration="46.00" routeLength="994.90" waitingTime="0.00" waitingCount="0" stopTime="0.00" timeLoss="0.89" rerouteNo="0" devices="tripinfo_westEastBottom0.1 ssm_westEastBottom0.1" vType="carCustom" speedFactor="1.13" vaporized=""/>
    <tripinfo id="southEast.2" depart="8.00" departLane="southJunction_0" departPos="5.10" departSpeed="20.98" departDelay="1.78" arrival="66.00" arrivalLane="junctionEast_0" arrivalPos="492.80" arrivalSpeed="21.62" duration="58.00" routeLength="989.53" waitingTime="0.00" waitingCount="0" stopTime="0.00" timeLoss="12.58" rerouteNo="0" devices="tripinfo_southEast.2 ssm_southEast.2" vType="carCustom" speedFactor="1.14" vaporized=""/>
    <tripinfo id="southNorth.1" depart="19.00" departLane="southJunction_1" departPos="5.10" departSpeed="21.83" departDelay="0.13" arrival="67.00" arrivalLane="junctionNorth_0" arrivalPos="492.80" arrivalSpeed="22.10" duration="48.00" routeLength="995.01" waitingTime="0.00" waitingCount="0" stopTime="0.00" timeLoss="2.55" rerouteNo="0" devices="tripinfo_southNorth.1 ssm_southNorth.1" vType="carCustom" speedFactor="0.90" vaporized=""/>
    <tripinfo id="southEast.3" depart="15.00" departLane="southJunction_0" departPos="5.10" departSpeed="19.82" departDelay="0.93" arrival="70.00" arrivalLane="junctionEast_0" arrivalPos="492.80" arrivalSpeed="21.67" duration="55.00" routeLength="989.53" waitingTime="0.00" waitingCount="0" stopTime="0.00" timeLoss="8.52" rerouteNo="0" devices="tripinfo_southEast.3 ssm_southEast.3" vType="carCustom" speedFactor="0.80" vaporized=""/>
    <tripinfo id="westEastBottom0.2" depart="19.00" departLane="westJunction_0" departPos="5.10" departSpeed="22.16" departDelay="0.50" arrival="75.00" arrivalLane="junctionEast_0" arrivalPos="492.80" arrivalSpeed="21.89" duration="56.00" routeLength="994.90" waitingTime="0.00" waitingCount="0" stopTime="0.00" timeLoss="10.25" rerouteNo="0" devices="tripinfo_westEastBottom0.2 ssm_westEastBottom0.2" vType="carCustom" speedFactor="1.07" vaporized=""/>
    <tripinfo id="westEastTop.3" depart="23.00" departLane="westJunction_1" departPos="5.10" departSpeed="21.82" departDelay="0.90" arrival="77.00" arrivalLane="junctionEast_0" arrivalPos="492.80" arrivalSpeed="21.88" duration="54.00" routeLength="994.90" waitingTime="0.00" waitingCount="0" stopTime="0.00" timeLoss="9.08" rerouteNo="0" devices="tripinfo_westEastTop.3 ssm_westEastTop.3" vType="carCustom" speedFactor="0.94" vaporized=""/>
    <tripinfo id="westEastTop.4" depart="29.00" departLane="westJunction_1" departPos="5.10" departSpeed="21.54" departDelay="0.84" arrival="80.00" arrivalLane="junctionEast_0" arrivalPos="492.80" arrivalSpeed="22.13" duration="51.00" routeLength="994.90" waitingTime="0.00" waitingCount="0" stopTime="0.00" timeLoss="5.60" rerouteNo="0" devices="tripinfo_westEastTop.4 ssm_westEastTop.4" vType="carCustom" speedFactor="1.06" vaporized=""/>
    <tripinfo id="southNorth.2" depart="28.00" departLane="southJunction_1" departPos="5.10" departSpeed="21.88" departDelay="0.20" arrival="84.00" arrivalLane="junctionNorth_0" arrivalPos="492.80" arrivalSpeed="20.99" duration="56.00" routeLength="995.01" waitingTime="1.00" waitingCount="1" stopTime="0.00" timeLoss="11.01" rerouteNo="0" devices="tripinfo_southNorth.2 ssm_southNorth.2" vType="carCustom" speedFactor="0.99" vaporized=""/>
    <tripinfo id="westEastBottom0.3" depart="31.00" departLane="westJunction_0" departPos="5.10" departSpeed="21.30" departDelay="0.41" arrival="90.00" arrivalLane="junctionEast_0" arrivalPos="492.80" arrivalSpeed="21.13" duration="59.00" routeLength="994.90" waitingTime="5.00" waitingCount="1" stopTime="0.00" timeLoss="12.91" rerouteNo="0" devices="tripinfo_westEastBottom0.3 ssm_westEastBottom0.3" vType="carCustom" speedFactor="1.06" vaporized=""/>
    <tripinfo id="westEastTop.5" depart="45.00" departLane="westJunction_1" departPos="5.10" departSpeed="21.62" departDelay="0.34" arrival="92.00" arrivalLane="junctionEast_1" arrivalPos="492.80" arrivalSpeed="21.07" duration="47.00" routeLength="994.90" waitingTime="0.00" waitingCount="0" stopTime="0.00" timeLoss="1.29" rerouteNo="0" devices="tripinfo_westEastTop.5 ssm_westEastTop.5" vType="carCustom" speedFactor="1.00" vaporized=""/>
    <tripinfo id="southNorth.3" depart="42.00" departLane="southJunction_1" departPos="5.10" departSpeed="21.62" departDelay="0.99" arrival="96.00" arrivalLane="junctionNorth_0" arrivalPos="492.80" arrivalSpeed="21.60" duration="54.00" routeLength="995.01" waitingTime="0.00" waitingCount="0" stopTime="0.00" timeLoss="8.39" rerouteNo="0" devices="tripinfo_southNorth.3 ssm_southNorth.3" vType="carCustom" speedFactor="0.88" vaporized=""/>
    <tripinfo id="southEast.4" depart="46.00" departLane="southJunction_0" departPos="5.10" departSpeed="22.22" departDelay="0.42" arrival="99.00" arrivalLane="junctionEast_0" arrivalPos="492.80" arrivalSpeed="21.44" duration="53.00" routeLength="989.53" waitingTime="0.00" waitingCount="0" stopTime="0.00" timeLoss="7.55" rerouteNo="0" devices="tripinfo_southEast.4 ssm_southEast.4" vType="carCustom" speedFactor="0.86" vaporized=""/>
    <tripinfo id="southNorth.4" depart="47.00" departLane="southJunction_1" departPos="5.10" departSpeed="20.95" departDelay="0.26" arrival="99.00" arrivalLane="junctionNorth_0" arrivalPos="492.80" arrivalSpeed="21.29" duration="52.00" routeLength="995.01" waitingTime="0.00" waitingCount="0" stopTime="0.00" timeLoss="6.37" rerouteNo="0" devices="tripinfo_southNorth.4 ssm_southNorth.4" vType="carCustom" speedFactor="0.89" vaporized=""/>
    <tripinfo id="westEastTop.6" depart="47.00" departLane="westJunction_1" departPos="5.10" departSpeed="21.03" departDelay="1.64" arrival="100.00" arrivalLane="junctionEast_1" arrivalPos="492.80" arrivalSpeed="21.35" duration="53.00" routeLength="994.90" waitingTime="0.00" waitingCount="0" stopTime="0.00" timeLoss="7.58" rerouteNo="0" devices="tripinfo_westEastTop.6 ssm_westEastTop.6" vType="carCustom" speedFactor="1.00" vaporized=""/>
    <tripinfo id="westEastTop.7" depart="51.00" departLane="westJunction_1" departPos="5.10" departSpeed="20.13" departDelay="0.48" arrival="103.00" arrivalLane="junctionEast_0" arrivalPos="492.80" arrivalSpeed="21.54" duration="52.00" routeLength="994.90" waitingTime="0.00" waitingCount="0" stopTime="0.00" timeLoss="6.56" rerouteNo="0" devices="tripinfo_westEastTop.7 ssm_westEastTop.7" vType="carCustom" speedFactor="1.06" vaporized=""/>
    <tripinfo id="westEastTop.8" depart="53.00" departLane="westJunction_1" departPos="5.10" departSpeed="21.67" departDelay="1.36" arrival="106.00" arrivalLane="junctionEast_0" arrivalPos="492.80" arrivalSpeed="21.72" duration="53.00" routeLength="994.90" waitingTime="0.00" waitingCount="0" stopTime="0.00" timeLoss="7.42" rerouteNo="0" devices="tripinfo_westEastTop.8 ssm_westEastTop.8" vType="carCustom" speedFactor="0.82" vaporized=""/>
    <tripinfo id="westEastBottom0.6" depart="81.00" departLane="westJunction_0" departPos="5.10" departSpeed="21.59" departDelay="0.39" arrival="106.00" arrivalLane="junctionEast_0" arrivalPos="492.80" arrivalSpeed="16.30" duration="25.00" routeLength="994.90" waitingTime="0.00" waitingCount="0" stopTime="0.00" timeLoss="2.33" rerouteNo="0" devices="tripinfo_westEastBottom0.6 ssm_westEastBottom0.6" vType="carCustom" speedFactor="0.93" vaporized="teleport"/>
    <tripinfo id="southNorth.5" depart="56.00" departLane="southJunction_1" departPos="5.10" departSpeed="21.11" departDelay="0.94" arrival="108.00" arrivalLane="junctionNorth_0" arrivalPos="492.80" arrivalSpeed="22.03" duration="52.00" routeLength="995.01" waitingTime="0.00" waitingCount="0" stopTime="0.00" timeLoss="6.90" rerouteNo="0" devices="tripinfo_southNorth.5 ssm_southNorth.5" vType="carCustom" speedFactor="1.06" vaporized=""/>
    <tripinfo id="southNorth.6" depart="58.00" departLane="southJunction_1" departPos="5.10" departSpeed="21.35" departDelay="2.07" arrival="111.00" arrivalLane="junctionNorth_0" arrivalPos="492.80" arrivalSpeed="21.18" duration="53.00" routeLength="995.01" waitingTime="0.00" waitingCount="0" stopTime="0.00" timeLoss="7.88" rerouteNo="0" devices="tripinfo_southNorth.6 ssm_southNorth.6" vType="carCustom" speedFactor="0.83" vaporized=""/>
    <tripinfo id="westEastTop.9" depart="55.00" departLane="westJunction_1" departPos="5.10" departSpeed="19.00" departDelay="0.73" arrival="115.00" arrivalLane="junctionEast_0" arrivalPos="492.80" arrivalSpeed="21.72" duration="60.00" routeLength="994.90" waitingTime="0.00" waitingCount="0" stopTime="0.00" timeLoss="14.78" rerouteNo="0" devices="tripinfo_westEastTop.9 ssm_westEastTop.9" vType="carCustom" speedFactor="1.21" vaporized=""/>
    <tripinfo id="westEastBottom0.4" depart="61.00" departLane="westJunction_0" departPos="5.10" departSpeed="1.41" departDelay="0.87" arrival="117.00" arrivalLane="junctionEast_1" arrivalPos="492.80" arrivalSpeed="22.02" duration="56.00" routeLength="994.90" waitingTime="0.00" waitingCount="0" stopTime="0.00" timeLoss="10.34" rerouteNo="0" devices="tripinfo_westEastBottom0.4 ssm_westEastBottom0.4" vType="carCustom" speedFactor="0.64" vaporized=""/>
    <tripinfo id="southNorth.7" depart="66.00" departLane="southJunction_1" departPos="5.10" departSpeed="20.17" departDelay="0.25" arrival="120.00" arrivalLane="junctionNorth_0" arrivalPos="492.80" arrivalSpeed="21.97" duration="54.00" routeLength="995.01" waitingTime="0.00" waitingCount="0" stopTime="0.00" timeLoss="8.35" rerouteNo="0" devices="tripinfo_southNorth.7 ssm_southNorth.7" vType="carCustom" speedFactor="1.05" vaporized=""/>
    <tripinfo id="southNorth.8" depart="71.00" departLane="southJunction_1" departPos="5.10" departSpeed="21.77" departDelay="0.31" arrival="123.00" arrivalLane="junctionNorth_0" arrivalPos="492.80" arrivalSpeed="21.10" duration="52.00" routeLength="995.01" waitingTime="0.00" waitingCount="0" stopTime="0.00" timeLoss="6.38" rerouteNo="0" devices="tripinfo_southNorth.8 ssm_southNorth.8" vType="carCustom" speedFactor="1.01" vaporized=""/>
    <tripinfo id="westEastBottom0.5" depart="72.00" departLane="westJunction_0" departPos="5.10" departSpeed="21.37" departDelay="0.09" arrival="124.00" arrivalLane="junctionEast_0" arrivalPos="492.80" arrivalSpeed="21.94" duration="52.00" routeLength="994.90" waitingTime="0.00" waitingCount="0" stopTime="0.00" timeLoss="6.71" rerouteNo="0" devices="tripinfo_westEastBottom0.5 ssm_westEastBottom0.5" vType="carCustom" speedFactor="1.03" vaporized=""/>
    <tripinfo id="westEastTop.10" depart="75.00" departLane="westJunction_1" departPos="5.10" departSpeed="17.48" departDelay="0.04" arrival="127.00" arrivalLane="junctionEast_0" arrivalPos="492.80" arrivalSpeed="21.10" duration="52.00" routeLength="994.90" waitingTime="0.00" waitingCount="0" stopTime="0.00" timeLoss="6.56" rerouteNo="0" devices="tripinfo_westEastTop.10 ssm_westEastTop.10" vType="carCustom" speedFactor="1.09" vaporized=""/>
    <tripinfo id="westEastTop.11" depart="80.00" departLane="westJunction_1" departPos="5.10" departSpeed="21.37" departDelay="0.95" arrival="130.00" arrivalLane="junctionEast_0" arrivalPos="492.80" arrivalSpeed="22.07" duration="50.00" routeLength="994.90" waitingTime="0.00" waitingCount="0" stopTime="0.00" timeLoss="4.29" rerouteNo="0" devices="tripinfo_westEastTop.11 ssm_westEastTop.11" vType="carCustom" speedFactor="0.92" vaporized=""/>
    <tripinfo id="southEast.5" depart="75.00" departLane="southJunction_0" departPos="5.10" departSpeed="22.22" departDelay="0.66" arrival="132.00" arrivalLane="junctionEast_0" arrivalPos="492.80" arrivalSpeed="22.15" duration="57.00" routeLength="989.53" waitingTime="1.00" waitingCount="1" stopTime="0.00" timeLoss="11.08" rerouteNo="0" devices="tripinfo_southEast.5 ssm_southEast.5" vType="carCustom" speedFactor="0.92" vaporized=""/>
    <tripinfo id="westEastTop.12" depart="82.00" departLane="westJunction_1" departPos="5.10" departSpeed="22.04" departDelay="1.88" arrival="132.00" arrivalLane="junctionEast_1" arrivalPos="492.80" arrivalSpeed="21.84" duration="50.00" routeLength="994.90" waitingTime="0.00" waitingCount="0" stopTime="0.00" timeLoss="4.96" rerouteNo="0" devices="tripinfo_westEastTop.12 ssm_westEastTop.12" vType="carCustom" speedFactor="0.91" vaporized=""/>
    <tripinfo id="westEastBottom0.7" depart="86.00" departLane="westJunction_0" departPos="5.10" departSpeed="21.48" departDelay="0.45" arrival="135.00" arrivalLane="junctionEast_0" arrivalPos="492.80" arrivalSpeed="21.23" duration="49.00" routeLength="994.90" waitingTime="0.00" waitingCount="0" stopTime="0.00" timeLoss="3.95" rerouteNo="0" devices="tripinfo_westEastBottom0.7 ssm_westEastBottom0.7" vType="carCustom" speedFactor="0.97" vaporized=""/>
    <tripinfo id="southEast.6" depart="78.00" departLane="southJunction_0" departPos="5.10" departSpeed="21.26" departDelay="0.46" arrival="141.00" arrivalLane="junctionEast_0" arrivalPos="492.80" arrivalSpeed="21.05" duration="63.00" routeLength="989.53" waitingTime="5.00" waitingCount="1" stopTime="0.00" timeLoss="17.01" rerouteNo="0" devices="tripinfo_southEast.6 ssm_southEast.6" vType="carCustom" speedFactor="1.12" vaporized=""/>
    <tripinfo id="southNorth.9" depart="85.00" departLane="southJunction_1" departPos="5.10" departSpeed="21.82" departDelay="0.92" arrival="141.00" arrivalLane="junctionNorth_0" arrivalPos="492.80" arrivalSpeed="21.57" duration="56.00" routeLength="995.01" waitingTime="0.00" waitingCount="0" stopTime="0.00" timeLoss="10.91" rerouteNo="0" devices="tripinfo_southNorth.9 ssm_southNorth.9" vType="carCustom" speedFactor="0.95" vaporized=""/>
    <tripinfo id="southNorth.10" depart="87.00" departLane="southJunction_1" departPos="5.10" departSpeed="21.76" departDelay="0.19" arrival="144.00" arrivalLane="junctionNorth_0" arrivalPos="492.80" arrivalSpeed="21.30" duration="57.00" routeLength="995.01" waitingTime="0.00" waitingCount="0" stopTime="0.00" timeLoss="11.88" rerouteNo="0" devices="tripinfo_southNorth.10 ssm_southNorth.10" vType="carCustom" speedFactor="1.00" vaporized=""/>
    <tripinfo id="westEastTop.13" depart="88.00" departLane="westJunction_1" departPos="5.10" departSpeed="19.50" departDelay="0.26" arrival="146.00" arrivalLane="junctionEast_0" arrivalPos="492.80" arrivalSpeed="21.29" duration="58.00" routeLength="994.90" waitingTime="5.00" waitingCount="1" stopTime="0.00" timeLoss="13.00" rerouteNo="0" devices="tripinfo_westEastTop.13 ssm_westEastTop.13" vType="carCustom" speedFactor="1.11" vaporized=""/>
    <tripinfo id="southNorth.11" depart="94.00" departLane="southJunction_1" departPos="5.10" departSpeed="20.15" departDelay="0.16" arrival="150.00" arrivalLane="junctionNorth_0" arrivalPos="492.80" arrivalSpeed="21.88" duration="56.00" routeLength="995.01" waitingTime="0.00" waitingCount="0" stopTime="0.00" timeLoss="10.75" rerouteNo="0" devices="tripinfo_southNorth.11 ssm_southNorth.11" vType="carCustom" speedFactor="1.09" vaporized=""/>
    <tripinfo id="southEast.7" depart="100.00" departLane="southJunction_0" departPos="5.10" departSpeed="13.70" departDelay="0.50" arrival="152.00" arrivalLane="junctionEast_0" arrivalPos="492.80" arrivalSpeed="22.11" duration="52.00" routeLength="989.53" waitingTime="0.00" waitingCount="0" stopTime="0.00" timeLoss="6.75" rerouteNo="0" devices="tripinfo_southEast.7 ssm_southEast.7" vType="carCustom" speedFactor="0.98" vaporized=""/>
    <tripinfo id="westEastTop.14" depart="100.00" departLane="westJunction_1" departPos="5.10" departSpeed="22.00" departDelay="0.65" arrival="156.00" arrivalLane="junctionEast_0" arrivalPos="492.80" arrivalSpeed="21.13" duration="56.00" routeLength="994.90" waitingTime="1.00" waitingCount="1" stopTime="0.00" timeLoss="10.90" rerouteNo="0" devices="tripinfo_westEastTop.14 ssm_westEastTop.14" vType="carCustom" speedFactor="0.90" vaporized=""/>
    <tripinfo id="westEastBottom0.8" depart="105.00" departLane="westJunction_0" departPos="5.10" departSpeed="14.91" departDelay="0.34" arrival="159.00" arrivalLane="junctionEast_0" arrivalPos="492.80" arrivalSpeed="21.21" duration="54.00" routeLength="994.90" waitingTime="0.00" waitingCount="0" stopTime="0.00" timeLoss="8.77" rerouteNo="0" devices="tripinfo_westEastBottom0.8 ssm_westEastBottom0.8" vType="carCustom" speedFactor="1.24" vaporized=""/>
    <tripinfo id="southEast.8" depart="107.00" departLane="southJunction_0" departPos="5.10" departSpeed="21.78" departDelay="0.91" arrival="162.00" arrivalLane="junctionEast_0" arrivalPos="492.80" arrivalSpeed="21.33" duration="55.00" routeLength="989.53" waitingTime="0.00" waitingCount="0" stopTime="0.00" timeLoss="8.63" rerouteNo="0" devices="tripinfo_southEast.8 ssm_southEast.8" vType="carCustom" speedFactor="0.87" vaporized=""/>
    <tripinfo id="westEastTop.15" depart="114.00" departLane="westJunction_1" departPos="5.10" departSpeed="21.19" departDelay="0.58" arrival="162.00" arrivalLane="junctionEast_1" arrivalPos="492.80" arrivalSpeed="21.20" duration="48.00" routeLength="994.90" waitingTime="0.00" waitingCount="0" stopTime="0.00" timeLoss="2.44" rerouteNo="0" devices="tripinfo_westEastTop.15 ssm_westEastTop.15" vType="carCustom" speedFactor="1.03" vaporized=""/>
    <tripinfo id="southNorth.12" depart="115.00" departLane="southJunction_1" departPos="5.10" departSpeed="14.79" departDelay="0.85" arrival="163.00" arrivalLane="junctionNorth_0" arrivalPos="492.80" arrivalSpeed="21.15" duration="48.00" routeLength="995.01" waitingTime="0.00" waitingCount="0" stopTime="0.00" timeLoss="2.70" rerouteNo="0" devices="tripinfo_southNorth.12 ssm_southNorth.12" vType="carCustom" speedFactor="1.01" vaporized=""/>
    <tripinfo id="southEast.9" depart="115.00" departLane="southJunction_0" departPos="5.10" departSpeed="21.44" departDelay="0.55" arrival="167.00" arrivalLane="junctionEast_0" arrivalPos="492.80" arrivalSpeed="21.55" duration="52.00" routeLength="989.53" waitingTime="0.00" waitingCount="0" stopTime="0.00" timeLoss="6.73" rerouteNo="0" devices="tripinfo_southEast.9 ssm_southEast.9" vType="carCustom" speedFactor="0.95" vaporized=""/>
    <tripinfo id="westEastTop.16" depart="116.00" departLane="westJunction_1" departPos="5.10" departSpeed="22.05" departDelay="0.32" arrival="169.00" arrivalLane="junctionEast_1" arrivalPos="492.80" arrivalSpeed="22.04" duration="53.00" routeLength="994.90" waitingTime="0.00" waitingCount="0" stopTime="0.00" timeLoss="7.43" rerouteNo="0" devices="tripinfo_westEastTop.16 ssm_westEastTop.16" vType="carCustom" speedFactor="0.98" vaporized=""/>
    <tripinfo id="westEastBottom0.9" depart="120.00" departLane="westJunction_0" departPos="5.10" departSpeed="21.09" departDelay="0.18" arrival="170.00" arrivalLane="junctionEast_0" arrivalPos="492.80" arrivalSpeed="21.45" duration="50.00" routeLength="994.90" waitingTime="0.00" waitingCount="0" stopTime="0.00" timeLoss="5.21" rerouteNo="0" devices="tripinfo_westEastBottom0.9 ssm_westEastBottom0.9" vType="carCustom" speedFactor="1.05" vaporized=""/>
    <tripinfo id="westEastTop.17" depart="126.00" departLane="westJunction_1" departPos="5.10" departSpeed="20.09" departDelay="0.02" arrival="173.00" arrivalLane="junctionEast_1" arrivalPos="492.80" arrivalSpeed="22.15" duration="47.00" routeLength="994.90" waitingTime="0.00" waitingCount="0" stopTime="0.00" timeLoss="1.45" rerouteNo="0" devices="tripinfo_westEastTop.17 ssm_westEastTop.17" vType="carCustom" speedFactor="0.99" vaporized=""/>
    <tripinfo id="westEastTop.18" depart="129.00" departLane="westJunction_1" departPos="5.10" departSpeed="21.47" departDelay="0.72" arrival="176.00" arrivalLane="junctionEast_0" arrivalPos="492.80" arrivalSpeed="22.15" duration="47.00" routeLength="994.90" waitingTime="0.00" waitingCount="0" stopTime="0.00" timeLoss="1.64" rerouteNo="0" devices="tripinfo_westEastTop.18 ssm_westEastTop.18" vType="carCustom" speedFactor="0.98" vaporized=""/>
    <tripinfo id="westEastTop.19" depart="131.00" departLane="westJunction_1" departPos="5.10" departSpeed="20.95" departDelay="2.44" arrival="179.00" arrivalLane="junctionEast_0" arrivalPos="492.80" arrivalSpeed="21.53" duration="48.00" routeLength="994.90" waitingTime="0.00" waitingCount="0" stopTime="0.00" timeLoss="2.69" rerouteNo="0" devices="tripinfo_westEastTop.19 ssm_westEastTop.19" vType="carCustom" speedFactor="0.98" vaporized=""/>
    <tripinfo id="westEastTop.20" depart="134.00" departLane="westJunction_1" departPos="5.10" departSpeed="18.76" departDelay="0.91" arrival="182.00" arrivalLane="junctionEast_0" arrivalPos="492.80" arrivalSpeed="22.17" duration="48.00" routeLength="994.90" waitingTime="0.00" waitingCount="0" stopTime="0.00" timeLoss="2.57" rerouteNo="0" devices="tripinfo_westEastTop.20 ssm_westEastTop.20" vType="carCustom" speedFactor="0.89" vaporized=""/>
    <tripinfo id="westEastTop.21" depart="138.00" departLane="westJunction_1" departPos="5.10" departSpeed="20.08" departDelay="0.39" arrival="185.00" arrivalLane="junctionEast_0" arrivalPos="492.80" arrivalSpeed="21.14" duration="47.00" routeLength="994.90" waitingTime="0.00" waitingCount="0" stopTime="0.00" timeLoss="1.68" rerouteNo="0" devices="tripinfo_westEastTop.21 ssm_westEastTop.21" vType="carCustom" speedFactor="1.12" vaporized=""/>
    <tripinfo id="westEastBottom0.10" depart="139.00" departLane="westJunction_0" departPos="5.10" departSpeed="21.53" departDelay="0.91" arrival="187.00" arrivalLane="junctionEast_0" arrivalPos="492.80" arrivalSpeed="22.02" duration="48.00" routeLength="994.90" waitingTime="0.00" waitingCount="0" stopTime="0.00" timeLoss="3.04" rerouteNo="0" devices="tripinfo_westEastBottom0.10 ssm_westEastBottom0.10" vType="carCustom" speedFactor="1.18" vaporized=""/>
    <tripinfo id="westEastTop.22" depart="140.00" departLane="westJunction_1" departPos="5.10" departSpeed="20.95" departDelay="0.15" arrival="188.00" arrivalLane="junctionEast_1" arrivalPos="492.80" arrivalSpeed="21.31" duration="48.00" routeLength="994.90" waitingTime="0.00" waitingCount="0" stopTime="0.00" timeLoss="2.72" rerouteNo="0" devices="tripinfo_westEastTop.22 ssm_westEastTop.22" vType="carCustom" speedFactor="0.95" vaporized=""/>
    <tripinfo id="westEastTop.23" depart="142.00" departLane="westJunction_1" departPos="5.10" departSpeed="19.47" departDelay="1.13" arrival="191.00" arrivalLane="junctionEast_0" arrivalPos="492.80" arrivalSpeed="21.31" duration="49.00" routeLength="994.90" waitingTime="0.00" waitingCount="0" stopTime="0.00" timeLoss="3.69" rerouteNo="0" devices="tripinfo_westEastTop.23 ssm_westEastTop.23" vType="carCustom" speedFactor="0.94" vaporized=""/>
    <tripinfo id="southNorth.13" depart="138.00" departLane="southJunction_1" departPos="5.10" departSpeed="16.14" departDelay="0.25" arrival="198.00" arrivalLane="junctionNorth_0" arrivalPos="492.80" arrivalSpeed="21.02" duration="60.00" routeLength="995.01" waitingTime="4.00" waitingCount="1" stopTime="0.00" timeLoss="14.86" rerouteNo="0" devices="tripinfo_southNorth.13 ssm_southNorth.13" vType="carCustom" speedFactor="1.08" vaporized=""/>
    <tripinfo id="southNorth.14" depart="147.00" departLane="southJunction_1" departPos="5.10" departSpeed="21.65" departDelay="0.47" arrival="201.00" arrivalLane="junctionNorth_0" arrivalPos="492.80" arrivalSpeed="21.95" duration="54.00" routeLength="995.01" waitingTime="0.00" waitingCount="0" stopTime="0.00" timeLoss="8.80" rerouteNo="0" devices="tripinfo_southNorth.14 ssm_southNorth.14" vType="carCustom" speedFactor="0.90" vaporized=""/>
    <tripinfo id="westEastTop.24" depart="144.00" departLane="westJunction_1" departPos="5.10" departSpeed="16.51" departDelay="1.95" arrival="203.00" arrivalLane="junctionEast_1" arrivalPos="492.80" arrivalSpeed="21.94" duration="59.00" routeLength="994.90" waitingTime="5.00" waitingCount="1" stopTime="0.00" timeLoss="13.70" rerouteNo="0" devices="tripinfo_westEastTop.24 ssm_westEastTop.24" vType="carCustom" speedFactor="1.10" vaporized=""/>
    <tripinfo id="westEastBottom0.11" depart="146.00" departLane="westJunction_0" departPos="5.10" departSpeed="21.76" departDelay="0.16" arrival="204.00" arrivalLane="junctionEast_0" arrivalPos="492.80" arrivalSpeed="21.93" duration="58.00" routeLength="994.90" waitingTime="3.00" waitingCount="1" stopTime="0.00" timeLoss="12.11" rerouteNo="0" devices="tripinfo_westEastBottom0.11 ssm_westEastBottom0.11" vType="carCustom" speedFactor="0.96" vaporized=""/>
    <tripinfo id="westEastTop.25" depart="149.00" departLane="westJunction_1" departPos="5.10" departSpeed="16.55" departDelay="0.81" arrival="206.00" arrivalLane="junctionEast_1" arrivalPos="492.80" arrivalSpeed="21.55" duration="57.00" routeLength="994.90" waitingTime="0.00" waitingCount="0" stopTime="0.00" timeLoss="11.79" rerouteNo="0" devices="tripinfo_westEastTop.25 ssm_westEastTop.25" vType="carCustom" speedFactor="0.90" vaporized=""/>