<?xml version="1.0" encoding="UTF-8"?>

<!-- generated on 2025-04-29 06:12:22 by Eclipse SUMO sumo Version 1.20.0
<configuration xmlns:xsi="http://www.w3.org/2001/XMLSchema-instance" xsi:noNamespaceSchemaLocation="http://sumo.dlr.de/xsd/sumoConfiguration.xsd">

    <input>
        <net-file value="nets/2lane_unprotected_right/2lane_unprotected_right.net.xml"/>
        <route-files value="nets/2lane_unprotected_right/2lane_unprotected_right.rou.xml"/>
    </input>

    <output>
        <tripinfo-output value="traces/transs50f1_s50_f0.5_random/0101_tripinfo.xml"/>
        <collision-output value="traces/transs50f1_s50_f0.5_random/0101_collisions.xml"/>
        <statistic-output value="traces/transs50f1_s50_f0.5_random/0101_statistics.xml"/>
    </output>

    <processing>
        <collision.action value="teleport"/>
        <collision.check-junctions value="true"/>
        <time-to-teleport value="-1"/>
        <waiting-time-memory value="1000"/>
        <max-depart-delay value="-1"/>
        <default.speeddev value="0.1"/>
    </processing>

    <report>
        <no-warnings value="true"/>
    </report>

    <ssm_device>
        <device.ssm.probability value="1.0"/>
        <device.ssm.measures value="BR"/>
        <device.ssm.file value="/Users/finn/Code/CausalKnowledgeTransfer-4-SafeRL/traces/transs50f1_s50_f0.5_random/0101_ssm.xml"/>
    </ssm_device>

    <traci_server>
        <remote-port value="63660"/>
    </traci_server>

    <random_number>
        <random value="true"/>
    </random_number>

</configuration>
-->

<tripinfos xmlns:xsi="http://www.w3.org/2001/XMLSchema-instance" xsi:noNamespaceSchemaLocation="http://sumo.dlr.de/xsd/tripinfo_file.xsd">
    <tripinfo id="westEastTop.0" depart="1.00" departLane="westJunction_1" departPos="5.10" departSpeed="27.78" departDelay="0.62" arrival="38.00" arrivalLane="junctionEast_1" arrivalPos="492.80" arrivalSpeed="27.07" duration="37.00" routeLength="994.90" waitingTime="0.00" waitingCount="0" stopTime="0.00" timeLoss="0.90" rerouteNo="0" devices="tripinfo_westEastTop.0 ssm_westEastTop.0" vType="carCustom" speedFactor="0.98" vaporized=""/>
    <tripinfo id="westEastTop.1" depart="3.00" departLane="westJunction_1" departPos="5.10" departSpeed="27.02" departDelay="2.52" arrival="46.00" arrivalLane="junctionEast_1" arrivalPos="492.80" arrivalSpeed="27.35" duration="43.00" routeLength="994.90" waitingTime="0.00" waitingCount="0" stopTime="0.00" timeLoss="6.74" rerouteNo="0" devices="tripinfo_westEastTop.1 ssm_westEastTop.1" vType="carCustom" speedFactor="0.96" vaporized=""/>
    <tripinfo id="southNorth.0" depart="6.00" departLane="southJunction_1" departPos="5.10" departSpeed="27.78" departDelay="0.58" arrival="49.00" arrivalLane="junctionNorth_0" arrivalPos="492.80" arrivalSpeed="27.68" duration="43.00" routeLength="995.01" waitingTime="0.00" waitingCount="0" stopTime="0.00" timeLoss="6.51" rerouteNo="0" devices="tripinfo_southNorth.0 ssm_southNorth.0" vType="carCustom" speedFactor="0.96" vaporized=""/>
    <tripinfo id="southEast.0" depart="1.00" departLane="southJunction_0" departPos="5.10" departSpeed="27.78" departDelay="0.27" arrival="50.00" arrivalLane="junctionEast_0" arrivalPos="492.80" arrivalSpeed="26.99" duration="49.00" routeLength="989.53" waitingTime="0.00" waitingCount="0" stopTime="0.00" timeLoss="12.00" rerouteNo="0" devices="tripinfo_southEast.0 ssm_southEast.0" vType="carCustom" speedFactor="1.07" vaporized=""/>
    <tripinfo id="westEastTop.2" depart="5.00" departLane="westJunction_1" departPos="5.10" departSpeed="21.68" departDelay="2.68" arrival="54.00" arrivalLane="junctionEast_1" arrivalPos="492.80" arrivalSpeed="27.39" duration="49.00" routeLength="994.90" waitingTime="0.00" waitingCount="0" stopTime="0.00" timeLoss="12.28" rerouteNo="0" devices="tripinfo_westEastTop.2 ssm_westEastTop.2" vType="carCustom" speedFactor="1.00" vaporized=""/>
    <tripinfo id="southNorth.1" depart="11.00" departLane="southJunction_1" departPos="5.10" departSpeed="27.31" departDelay="0.97" arrival="59.00" arrivalLane="junctionNorth_0" arrivalPos="492.80" arrivalSpeed="26.77" duration="48.00" routeLength="995.01" waitingTime="0.00" waitingCount="0" stopTime="0.00" timeLoss="11.52" rerouteNo="0" devices="tripinfo_southNorth.1 ssm_southNorth.1" vType="carCustom" speedFactor="1.07" vaporized=""/>
    <tripinfo id="westEastTop.3" depart="7.00" departLane="westJunction_1" departPos="5.10" departSpeed="16.36" departDelay="0.98" arrival="64.00" arrivalLane="junctionEast_1" arrivalPos="492.80" arrivalSpeed="26.99" duration="57.00" routeLength="994.90" waitingTime="0.00" waitingCount="0" stopTime="0.00" timeLoss="20.93" rerouteNo="0" devices="tripinfo_westEastTop.3 ssm_westEastTop.3" vType="carCustom" speedFactor="1.08" vaporized=""/>
    <tripinfo id="westEastBottom0.0" depart="17.00" departLane="westJunction_0" departPos="5.10" departSpeed="27.78" departDelay="0.36" arrival="71.00" arrivalLane="junctionEast_1" arrivalPos="492.80" arrivalSpeed="27.16" duration="54.00" routeLength="994.90" waitingTime="0.00" waitingCount="0" stopTime="0.00" timeLoss="17.35" rerouteNo="0" devices="tripinfo_westEastBottom0.0 ssm_westEastBottom0.0" vType="carCustom" speedFactor="1.00" vaporized=""/>
    <tripinfo id="southEast.1" depart="26.00" departLane="southJunction_0" departPos="5.10" departSpeed="27.78" departDelay="0.15" arrival="73.00" arrivalLane="junctionEast_0" arrivalPos="492.80" arrivalSpeed="27.30" duration="47.00" routeLength="989.53" waitingTime="0.00" waitingCount="0" stopTime="0.00" timeLoss="9.46" rerouteNo="0" devices="tripinfo_southEast.1 ssm_southEast.1" vType="carCustom" speedFactor="0.86" vaporized=""/>
    <tripinfo id="westEastTop.4" depart="10.00" departLane="westJunction_1" departPos="5.10" departSpeed="9.96" departDelay="0.48" arrival="77.00" arrivalLane="junctionEast_1" arrivalPos="492.80" arrivalSpeed="26.92" duration="67.00" routeLength="994.90" waitingTime="0.00" waitingCount="0" stopTime="0.00" timeLoss="30.49" rerouteNo="0" devices="tripinfo_westEastTop.4 ssm_westEastTop.4" vType="carCustom" speedFactor="1.01" vaporized=""/>
    <tripinfo id="westEastBottom0.1" depart="28.00" departLane="westJunction_0" departPos="5.10" departSpeed="27.78" departDelay="0.11" arrival="83.00" arrivalLane="junctionEast_1" arrivalPos="492.80" arrivalSpeed="27.29" duration="55.00" routeLength="994.90" waitingTime="0.00" waitingCount="0" stopTime="0.00" timeLoss="18.55" rerouteNo="0" devices="tripinfo_westEastBottom0.1 ssm_westEastBottom0.1" vType="carCustom" speedFactor="1.08" vaporized=""/>
    <tripinfo id="southEast.2" depart="28.00" departLane="southJunction_0" departPos="5.10" departSpeed="27.14" departDelay="1.10" arrival="84.00" arrivalLane="junctionEast_0" arrivalPos="492.80" arrivalSpeed="27.34" duration="56.00" routeLength="989.53" waitingTime="0.00" waitingCount="0" stopTime="0.00" timeLoss="19.46" rerouteNo="0" devices="tripinfo_southEast.2 ssm_southEast.2" vType="carCustom" speedFactor="1.06" vaporized=""/>
    <tripinfo id="westEastTop.5" depart="22.00" departLane="westJunction_1" departPos="5.10" departSpeed="12.54" departDelay="0.26" arrival="89.00" arrivalLane="junctionEast_1" arrivalPos="492.80" arrivalSpeed="26.76" duration="67.00" routeLength="994.90" waitingTime="0.00" waitingCount="0" stopTime="0.00" timeLoss="30.30" rerouteNo="0" devices="tripinfo_westEastTop.5 ssm_westEastTop.5" vType="carCustom" speedFactor="1.03" vaporized=""/>
    <tripinfo id="southEast.3" depart="32.00" departLane="southJunction_0" departPos="5.10" departSpeed="18.00" departDelay="0.50" arrival="90.00" arrivalLane="junctionEast_0" arrivalPos="492.80" arrivalSpeed="27.41" duration="58.00" routeLength="989.53" waitingTime="0.00" waitingCount="0" stopTime="0.00" timeLoss="21.56" rerouteNo="0" devices="tripinfo_southEast.3 ssm_southEast.3" vType="carCustom" speedFactor="0.98" vaporized=""/>
    <tripinfo id="westEastTop.6" depart="24.00" departLane="westJunction_1" departPos="5.10" departSpeed="16.84" departDelay="1.33" arrival="94.00" arrivalLane="junctionEast_1" arrivalPos="492.80" arrivalSpeed="26.54" duration="70.00" routeLength="994.90" waitingTime="0.00" waitingCount="0" stopTime="0.00" timeLoss="33.94" rerouteNo="0" devices="tripinfo_westEastTop.6 ssm_westEastTop.6" vType="carCustom" speedFactor="0.99" vaporized=""/>
    <tripinfo id="westEastBottom0.2" depart="34.00" departLane="westJunction_0" departPos="5.10" departSpeed="20.20" departDelay="0.18" arrival="100.00" arrivalLane="junctionEast_1" arrivalPos="492.80" arrivalSpeed="27.36" duration="66.00" routeLength="994.90" waitingTime="0.00" waitingCount="0" stopTime="0.00" timeLoss="29.34" rerouteNo="0" devices="tripinfo_westEastBottom0.2 ssm_westEastBottom0.2" vType="carCustom" speedFactor="1.13" vaporized=""/>
    <tripinfo id="westEastTop.7" depart="40.00" departLane="westJunction_1" departPos="5.10" departSpeed="15.57" departDelay="0.63" arrival="105.00" arrivalLane="junctionEast_1" arrivalPos="492.80" arrivalSpeed="27.15" duration="65.00" routeLength="994.90" waitingTime="0.00" waitingCount="0" stopTime="0.00" timeLoss="28.87" rerouteNo="0" devices="tripinfo_westEastTop.7 ssm_westEastTop.7" vType="carCustom" speedFactor="0.72" vaporized=""/>
    <tripinfo id="westEastBottom0.3" depart="58.00" departLane="westJunction_0" departPos="5.10" departSpeed="27.78" departDelay="0.85" arrival="109.00" arrivalLane="junctionEast_0" arrivalPos="492.80" arrivalSpeed="27.13" duration="51.00" routeLength="994.90" waitingTime="0.00" waitingCount="0" stopTime="0.00" timeLoss="14.27" rerouteNo="0" devices="tripinfo_westEastBottom0.3 ssm_westEastBottom0.3" vType="carCustom" speedFactor="0.90" vaporized=""/>
    <tripinfo id="westEastTop.8" depart="42.00" departLane="westJunction_1" departPos="5.10" departSpeed="15.56" departDelay="0.14" arrival="111.00" arrivalLane="junctionEast_1" arrivalPos="492.80" arrivalSpeed="27.22" duration="69.00" routeLength="994.90" waitingTime="0.00" waitingCount="0" stopTime="0.00" timeLoss="32.35" rerouteNo="0" devices="tripinfo_westEastTop.8 ssm_westEastTop.8" vType="carCustom" speedFactor="1.23" vaporized=""/>
    <tripinfo id="southEast.4" depart="57.00" departLane="southJunction_0" departPos="5.10" departSpeed="13.56" departDelay="0.60" arrival="114.00" arrivalLane="junctionEast_0" arrivalPos="492.80" arrivalSpeed="26.55" duration="57.00" routeLength="989.53" waitingTime="0.00" waitingCount="0" stopTime="0.00" timeLoss="19.90" rerouteNo="0" devices="tripinfo_southEast.4 ssm_southEast.4" vType="carCustom" speedFactor="0.93" vaporized=""/>
    <tripinfo id="westEastTop.9" depart="49.00" departLane="westJunction_1" departPos="5.10" departSpeed="11.89" departDelay="0.52" arrival="116.00" arrivalLane="junctionEast_1" arrivalPos="492.80" arrivalSpeed="26.70" duration="67.00" routeLength="994.90" waitingTime="0.00" waitingCount="0" stopTime="0.00" timeLoss="30.87" rerouteNo="0" devices="tripinfo_westEastTop.9 ssm_westEastTop.9" vType="carCustom" speedFactor="1.00" vaporized=""/>
    <tripinfo id="southNorth.2" depart="40.00" departLane="southJunction_1" departPos="5.10" departSpeed="27.78" departDelay="0.39" arrival="120.00" arrivalLane="junctionNorth_0" arrivalPos="492.80" arrivalSpeed="27.34" duration="80.00" routeLength="995.01" waitingTime="32.00" waitingCount="1" stopTime="0.00" timeLoss="44.15" rerouteNo="0" devices="tripinfo_southNorth.2 ssm_southNorth.2" vType="carCustom" speedFactor="0.88" vaporized=""/>
    <tripinfo id="southEast.5" depart="59.00" departLane="southJunction_0" departPos="5.10" departSpeed="16.73" departDelay="0.31" arrival="121.00" arrivalLane="junctionEast_0" arrivalPos="492.80" arrivalSpeed="27.40" duration="62.00" routeLength="989.53" waitingTime="0.00" waitingCount="0" stopTime="0.00" timeLoss="25.07" rerouteNo="0" devices="tripinfo_southEast.5 ssm_southEast.5" vType="carCustom" speedFactor="0.94" vaporized=""/>
    <tripinfo id="westEastBottom0.4" depart="60.00" departLane="westJunction_0" departPos="5.10" departSpeed="26.35" departDelay="0.19" arrival="121.00" arrivalLane="junctionEast_1" arrivalPos="492.80" arrivalSpeed="26.71" duration="61.00" routeLength="994.90" waitingTime="0.00" waitingCount="0" stopTime="0.00" timeLoss="25.00" rerouteNo="0" devices="tripinfo_westEastBottom0.4 ssm_westEastBottom0.4" vType="carCustom" speedFactor="0.98" vaporized=""/>
    <tripinfo id="westEastTop.10" depart="51.00" departLane="westJunction_1" departPos="5.10" departSpeed="13.10" departDelay="1.42" arrival="126.00" arrivalLane="junctionEast_1" arrivalPos="492.80" arrivalSpeed="27.60" duration="75.00" routeLength="994.90" waitingTime="0.00" waitingCount="0" stopTime="0.00" timeLoss="39.13" rerouteNo="0" devices="tripinfo_westEastTop.10 ssm_westEastTop.10" vType="carCustom" speedFactor="1.09" vaporized=""/>
    <tripinfo id="southNorth.3" depart="58.00" departLane="southJunction_1" departPos="5.10" departSpeed="14.64" departDelay="0.27" arrival="126.00" arrivalLane="junctionNorth_0" arrivalPos="492.80" arrivalSpeed="26.57" duration="68.00" routeLength="995.01" waitingTime="8.00" waitingCount="1" stopTime="0.00" timeLoss="32.17" rerouteNo="0" devices="tripinfo_southNorth.3 ssm_southNorth.3" vType="carCustom" speedFactor="0.93" vaporized=""/>
    <tripinfo id="southEast.6" depart="67.00" departLane="southJunction_0" departPos="5.10" departSpeed="19.23" departDelay="0.89" arrival="128.00" arrivalLane="junctionEast_0" arrivalPos="492.80" arrivalSpeed="27.56" duration="61.00" routeLength="989.53" waitingTime="0.00" waitingCount="0" stopTime="0.00" timeLoss="23.93" rerouteNo="0" devices="tripinfo_southEast.6 ssm_southEast.6" vType="carCustom" speedFactor="1.02" vaporized=""/>
    <tripinfo id="westEastTop.11" depart="53.00" departLane="westJunction_1" departPos="5.10" departSpeed="9.09" departDelay="3.38" arrival="132.00" arrivalLane="junctionEast_1" arrivalPos="492.80" arrivalSpeed="27.26" duration="79.00" routeLength="994.90" waitingTime="0.00" waitingCount="0" stopTime="0.00" timeLoss="42.33" rerouteNo="0" devices="tripinfo_westEastTop.11 ssm_westEastTop.11" vType="carCustom" speedFactor="0.98" vaporized=""/>
    <tripinfo id="southNorth.4" depart="64.00" departLane="southJunction_1" departPos="5.10" departSpeed="26.22" departDelay="0.17" arrival="133.00" arrivalLane="junctionNorth_0" arrivalPos="492.80" arrivalSpeed="26.72" duration="69.00" routeLength="995.01" waitingTime="2.00" waitingCount="2" stopTime="0.00" timeLoss="32.61" rerouteNo="0" devices="tripinfo_southNorth.4 ssm_southNorth.4" vType="carCustom" speedFactor="1.12" vaporized=""/>
    <tripinfo id="southEast.7" depart="76.00" departLane="southJunction_0" departPos="5.10" departSpeed="16.32" departDelay="0.26" arrival="137.00" arrivalLane="junctionEast_1" arrivalPos="492.80" arrivalSpeed="26.49" duration="61.00" routeLength="989.53" waitingTime="0.00" waitingCount="0" stopTime="0.00" timeLoss="24.10" rerouteNo="0" devices="tripinfo_southEast.7 ssm_southEast.7" vType="carCustom" speedFactor="1.05" vaporized=""/>
    <tripinfo id="westEastBottom0.5" depart="82.00" departLane="westJunction_0" departPos="5.10" departSpeed="15.39" departDelay="0.89" arrival="142.00" arrivalLane="junctionEast_1" arrivalPos="492.80" arrivalSpeed="26.64" duration="60.00" routeLength="994.90" waitingTime="0.00" waitingCount="0" stopTime="0.00" timeLoss="23.63" rerouteNo="0" devices="tripinfo_westEastBottom0.5 ssm_westEastBottom0.5" vType="carCustom" speedFactor="1.07" vaporized=""/>
    <tripinfo id="southNorth.5" depart="66.00" departLane="southJunction_1" departPos="5.10" departSpeed="22.44" departDelay="0.02" arrival="143.00" arrivalLane="junctionNorth_0" arrivalPos="492.80" arrivalSpeed="27.07" duration="77.00" routeLength="995.01" waitingTime="7.00" waitingCount="1" stopTime="0.00" timeLoss="40.23" rerouteNo="0" devices="tripinfo_southNorth.5 ssm_southNorth.5" vType="carCustom" speedFactor="1.07" vaporized=""/>
    <tripinfo id="southEast.8" depart="78.00" departLane="southJunction_0" departPos="5.10" departSpeed="19.02" departDelay="1.33" arrival="143.00" arrivalLane="junctionEast_0" arrivalPos="492.80" arrivalSpeed="27.30" duration="65.00" routeLength="989.53" waitingTime="0.00" waitingCount="0" stopTime="0.00" timeLoss="28.56" rerouteNo="0" devices="tripinfo_southEast.8 ssm_southEast.8" vType="carCustom" speedFactor="1.08" vaporized=""/>
    <tripinfo id="westEastTop.12" depart="56.00" departLane="westJunction_1" departPos="5.10" departSpeed="6.18" departDelay="2.82" arrival="147.00" arrivalLane="junctionEast_1" arrivalPos="492.80" arrivalSpeed="26.78" duration="91.00" routeLength="994.90" waitingTime="3.00" waitingCount="1" stopTime="0.00" timeLoss="54.32" rerouteNo="0" devices="tripinfo_westEastTop.12 ssm_westEastTop.12" vType="carCustom" speedFactor="1.08" vaporized=""/>
    <tripinfo id="southEast.9" depart="82.00" departLane="southJunction_0" departPos="5.10" departSpeed="12.21" departDelay="0.36" arrival="149.00" arrivalLane="junctionEast_0" arrivalPos="492.80" arrivalSpeed="27.01" duration="67.00" routeLength="989.53" waitingTime="0.00" waitingCount="0" stopTime="0.00" timeLoss="30.23" rerouteNo="0" devices="tripinfo_southEast.9 ssm_southEast.9" vType="carCustom" speedFactor="1.03" vaporized=""/>
    <tripinfo id="westEastTop.13" depart="59.00" departLane="westJunction_1" departPos="5.10" departSpeed="6.72" departDelay="4.55" arrival="151.00" arrivalLane="junctionEast_1" arrivalPos="492.80" arrivalSpeed="27.61" duration="92.00" routeLength="994.90" waitingTime="0.00" waitingCount="0" stopTime="0.00" timeLoss="56.06" rerouteNo="0" devices="tripinfo_westEastTop.13 ssm_westEastTop.13" vType="carCustom" speedFactor="1.06" vaporized=""/>
    <tripinfo id="westEastBottom0.6" depart="93.00" departLane="westJunction_0" departPos="5.10" departSpeed="17.34" departDelay="0.92" arrival="155.00" arrivalLane="junctionEast_0" arrivalPos="492.80" arrivalSpeed="26.64" duration="62.00" routeLength="994.90" waitingTime="0.00" waitingCount="0" stopTime="0.00" timeLoss="25.28" rerouteNo="0" devices="tripinfo_westEastBottom0.6 ssm_westEastBottom0.6" vType="carCustom" speedFactor="0.94" vaporized=""/>
    <tripinfo id="southNorth.6" depart="68.00" departLane="southJunction_1" departPos="5.10" departSpeed="17.26" departDelay="1.03" arrival="156.00" arrivalLane="junctionNorth_0" arrivalPos="492.80" arrivalSpeed="26.95" duration="88.00" routeLength="995.01" waitingTime="14.00" waitingCount="2" stopTime="0.00" timeLoss="51.98" rerouteNo="0" devices="tripinfo_southNorth.6 ssm_southNorth.6" vType="carCustom" speedFactor="0.93" vaporized=""/>
    <tripinfo id="westEastTop.14" depart="68.00" departLane="westJunction_1" departPos="5.10" departSpeed="8.53" departDelay="0.51" arrival="156.00" arrivalLane="junctionEast_1" arrivalPos="492.80" arrivalSpeed="27.09" duration="88.00" routeLength="994.90" waitingTime="3.00" waitingCount="1" stopTime="0.00" timeLoss="51.91" rerouteNo="0" devices="tripinfo_westEastTop.14 ssm_westEastTop.14" vType="carCustom" speedFactor="0.85" vaporized=""/>
    <tripinfo id="westEastBottom0.7" depart="95.00" departLane="westJunction_0" departPos="5.10" departSpeed="17.32" departDelay="0.78" arrival="160.00" arrivalLane="junctionEast_0" arrivalPos="492.80" arrivalSpeed="26.95" duration="65.00" routeLength="994.90" waitingTime="0.00" waitingCount="0" stopTime="0.00" timeLoss="28.65" rerouteNo="0" devices="tripinfo_westEastBottom0.7 ssm_westEastBottom0.7" vType="carCustom" speedFactor="0.81" vaporized=""/>
    <tripinfo id="westEastTop.15" depart="70.00" departLane="westJunction_1" departPos="5.10" departSpeed="9.96" departDelay="1.46" arrival="161.00" arrivalLane="junctionEast_1" arrivalPos="492.80" arrivalSpeed="27.36" duration="91.00" routeLength="994.90" waitingTime="0.00" waitingCount="0" stopTime="0.00" timeLoss="54.85" rerouteNo="0" devices="tripinfo_westEastTop.15 ssm_westEastTop.15" vType="carCustom" speedFactor="1.05" vaporized=""/>
    <tripinfo id="southNorth.7" depart="77.00" departLane="southJunction_1" departPos="5.10" departSpeed="13.37" departDelay="0.13" arrival="162.00" arrivalLane="junctionNorth_0" arrivalPos="492.80" arrivalSpeed="27.40" duration="85.00" routeLength="995.01" waitingTime="9.00" waitingCount="2" stopTime="0.00" timeLoss="48.94" rerouteNo="0" devices="tripinfo_southNorth.7 ssm_southNorth.7" vType="carCustom" speedFactor="0.88" vaporized=""/>
    <tripinfo id="westEastTop.16" depart="73.00" departLane="westJunction_1" departPos="5.10" departSpeed="7.49" departDelay="3.18" arrival="166.00" arrivalLane="junctionEast_1" arrivalPos="492.80" arrivalSpeed="27.76" duration="93.00" routeLength="994.90" waitingTime="0.00" waitingCount="0" stopTime="0.00" timeLoss="56.77" rerouteNo="0" devices="tripinfo_westEastTop.16 ssm_westEastTop.16" vType="carCustom" speedFactor="0.84" vaporized=""/>
    <tripinfo id="westEastBottom0.8" depart="104.00" departLane="westJunction_0" departPos="5.10" departSpeed="13.76" departDelay="0.77" arrival="166.00" arrivalLane="junctionEast_0" arrivalPos="492.80" arrivalSpeed="26.52" duration="62.00" routeLength="994.90" waitingTime="0.00" waitingCount="0" stopTime="0.00" timeLoss="26.03" rerouteNo="0" devices="tripinfo_westEastBottom0.8 ssm_westEastBottom0.8" vType="carCustom" speedFactor="1.09" vaporized=""/>
    <tripinfo id="southNorth.8" depart="81.00" departLane="southJunction_1" departPos="5.10" departSpeed="15.28" departDelay="0.77" arrival="169.00" arrivalLane="junctionNorth_0" arrivalPos="492.80" arrivalSpeed="27.47" duration="88.00" routeLength="995.01" waitingTime="8.00" waitingCount="2" stopTime="0.00" timeLoss="51.34" rerouteNo="0" devices="tripinfo_southNorth.8 ssm_southNorth.8" vType="carCustom" speedFactor="1.19" vaporized=""/>
    <tripinfo id="westEastTop.17" depart="81.00" departLane="westJunction_1" departPos="5.10" departSpeed="7.02" departDelay="0.10" arrival="171.00" arrivalLane="junctionEast_1" arrivalPos="492.80" arrivalSpeed="27.72" duration="90.00" routeLength="994.90" waitingTime="0.00" waitingCount="0" stopTime="0.00" timeLoss="53.70" rerouteNo="0" devices="tripinfo_westEastTop.17 ssm_westEastTop.17" vType="carCustom" speedFactor="0.98" vaporized=""/>
    <tripinfo id="southNorth.9" depart="103.00" departLane="southJunction_1" departPos="5.10" departSpeed="13.07" departDelay="0.66" arrival="174.00" arrivalLane="junctionNorth_0" arrivalPos="492.80" arrivalSpeed="26.70" duration="71.00" routeLength="995.01" waitingTime="0.00" waitingCount="0" stopTime="0.00" timeLoss="34.99" rerouteNo="0" devices="tripinfo_southNorth.9 ssm_southNorth.9" vType="carCustom" speedFactor="0.91" vaporized=""/>
    <tripinfo id="westEastBottom0.10" depart="117.00" departLane="westJunction_0" departPos="5.10" departSpeed="15.61" departDelay="0.48" arrival="176.00" arrivalLane="junctionEast_1" arrivalPos="492.80" arrivalSpeed="27.07" duration="59.00" routeLength="994.90" waitingTime="0.00" waitingCount="0" stopTime="0.00" timeLoss="22.75" rerouteNo="0" devices="tripinfo_westEastBottom0.10 ssm_westEastBottom0.10" vType="carCustom" speedFactor="1.02" vaporized=""/>
    <tripinfo id="southNorth.10" depart="114.00" departLane="southJunction_1" departPos="5.10" departSpeed="21.72" departDelay="0.37" arrival="180.00" arrivalLane="junctionNorth_0" arrivalPos="492.80" arrivalSpeed="26.98" duration="66.00" routeLength="995.01" waitingTime="2.00" waitingCount="1" stopTime="0.00" timeLoss="29.86" rerouteNo="0" devices="tripinfo_southNorth.10 ssm_southNorth.10" vType="carCustom" speedFactor="0.98" vaporized=""/>
    <tripinfo id="westEastTop.18" depart="83.00" departLane="westJunction_1" departPos="5.10" departSpeed="9.54" departDelay="2.02" arrival="181.00" arrivalLane="junctionEast_1" arrivalPos="492.80" arrivalSpeed="27.43" duration="98.00" routeLength="994.90" waitingTime="4.00" waitingCount="1" stopTime="0.00" timeLoss="61.95" rerouteNo="0" devices="tripinfo_westEastTop.18 ssm_westEastTop.18" vType="carCustom" speedFactor="1.13" vaporized=""/>
    <tripinfo id="westEastTop.19" depart="87.00" departLane="westJunction_1" departPos="5.10" departSpeed="7.43" departDelay="0.96" arrival="186.00" arrivalLane="junctionEast_1" arrivalPos="492.80" arrivalSpeed="27.41" duration="99.00" routeLength="994.90" waitingTime="0.00" waitingCount="0" stopTime="0.00" timeLoss="62.97" rerouteNo="0" devices="tripinfo_westEastTop.19 ssm_westEastTop.19" vType="carCustom" speedFactor="0.97" vaporized=""/>
    <tripinfo id="southEast.10" depart="132.00" departLane="southJunction_0" departPos="5.10" departSpeed="27.78" departDelay="0.75" arrival="187.00" arrivalLane="junctionEast_0" arrivalPos="492.80" arrivalSpeed="26.94" duration="55.00" routeLength="989.53" waitingTime="0.00" waitingCount="0" stopTime="0.00" timeLoss="17.97" rerouteNo="0" devices="tripinfo_southEast.10 ssm_southEast.10" vType="carCustom" speedFactor="1.11" vaporized=""/>
    <tripinfo id="southNorth.11" depart="120.00" departLane="southJunction_1" departPos="5.10" departSpeed="23.51" departDelay="0.07" arrival="188.00" arrivalLane="junctionNorth_0" arrivalPos="492.80" arrivalSpeed="26.83" duration="68.00" routeLength="995.01" waitingTime="5.00" waitingCount="1" stopTime="0.00" timeLoss="31.40" rerouteNo="0" devices="tripinfo_southNorth.11 ssm_southNorth.11" vType="carCustom" speedFactor="0.99" vaporized=""/>
    <tripinfo id="southEast.12" depart="139.00" departLane="southJunction_0" departPos="5.10" departSpeed="16.79" departDelay="0.60" arrival="188.00" arrivalLane="junctionEast_0" arrivalPos="492.80" arrivalSpeed="4.99" duration="49.00" routeLength="989.53" waitingTime="12.00" waitingCount="1" stopTime="0.00" timeLoss="30.20" rerouteNo="0" devices="tripinfo_southEast.12 ssm_southEast.12" vType="carCustom" speedFactor="0.77" vaporized="teleport"/>
    <tripinfo id="westEastTop.20" depart="101.00" departLane="westJunction_1" departPos="5.10" departSpeed="8.45" departDelay="0.45" arrival="191.00" arrivalLane="junctionEast_1" arrivalPos="492.80" arrivalSpeed="26.89" duration="90.00" routeLength="994.90" waitingTime="1.00" waitingCount="1" stopTime="0.00" timeLoss="54.00" rerouteNo="0" devices="tripinfo_westEastTop.20 ssm_westEastTop.20" vType="carCustom" speedFactor="1.05" vaporized=""/>
    <tripinfo id="westEastBottom0.11" depart="121.00" departLane="westJunction_0" departPos="5.10" departSpeed="16.32" departDelay="0.16" arrival="192.00" arrivalLane="junctionEast_0" arrivalPos="492.80" arrivalSpeed="26.81" duration="71.00" routeLength="994.90" waitingTime="0.00" waitingCount="0" stopTime="0.00" timeLoss="34.68" rerouteNo="0" devices="tripinfo_westEastBottom0.11 ssm_westEastBottom0.11" vType="carCustom" speedFactor="1.07" vaporized=""/>
    <tripinfo id="westEastTop.21" depart="107.00" departLane="westJunction_1" departPos="5.10" departSpeed="13.09" departDelay="0.25" arrival="197.00" arrivalLane="junctionEast_1" arrivalPos="492.80" arrivalSpeed="26.84" duration="90.00" routeLength="994.90" waitingTime="5.00" waitingCount="1" stopTime="0.00" timeLoss="53.42" rerouteNo="0" devices="tripinfo_westEastTop.21 ssm_westEastTop.21" vType="carCustom" speedFactor="1.05" vaporized=""/>
    <tripinfo id="southEast.11" depart="134.00" departLane="southJunction_0" departPos="5.10" departSpeed="26.88" departDelay="1.89" arrival="197.00" arrivalLane="junctionEast_0" arrivalPos="492.80" arrivalSpeed="27.40" duration="63.00" routeLength="989.53" waitingTime="0.00" waitingCount="0" stopTime="0.00" timeLoss="26.27" rerouteNo="0" devices="tripinfo_southEast.11 ssm_southEast.11" vType="carCustom" speedFactor="0.92" vaporized=""/>
    <tripinfo id="westEastBottom0.9" depart="112.00" departLane="westJunction_0" departPos="5.10" departSpeed="15.43" departDelay="0.43" arrival="202.00" arrivalLane="junctionEast_1" arrivalPos="492.80" arrivalSpeed="26.65" duration="90.00" routeLength="994.90" waitingTime="3.00" waitingCount="1" stopTime="0.00" timeLoss="53.84" rerouteNo="0" devices="tripinfo_westEastBottom0.9 ssm_westEastBottom0.9" vType="carCustom" speedFactor="0.99" vaporized=""/>
    <tripinfo id="westEastBottom0.12" depart="126.00" departLane="westJunction_0" departPos="5.10" departSpeed="15.00" departDelay="0.49" arrival="202.00" arrivalLane="junctionEast_0" arrivalPos="492.80" arrivalSpeed="26.78" duration="76.00" routeLength="994.90" waitingTime="2.00" waitingCount="1" stopTime="0.00" timeLoss="39.96" rerouteNo="0" devices="tripinfo_westEastBottom0.12 ssm_westEastBottom0.12" vType="carCustom" speedFactor="1.08" vaporized=""/>
    <tripinfo id="westEastTop.22" depart="111.00" departLane="westJunction_1" departPos="5.10" departSpeed="13.66" departDelay="0.77" arrival="207.00" arrivalLane="junctionEast_1" arrivalPos="492.80" arrivalSpeed="26.89" duration="96.00" routeLength="994.90" waitingTime="0.00" waitingCount="0" stopTime="0.00" timeLoss="60.04" rerouteNo="0" devices="tripinfo_westEastTop.22 ssm_westEastTop.22" vType="carCustom" speedFactor="0.80" vaporized=""/>
    <tripinfo id="westEastBottom0.13" depart="138.00" departLane="westJunction_0" departPos="5.10" departSpeed="14.38" departDelay="0.42" arrival="207.00" arrivalLane="junctionEast_0" arrivalPos="492.80" arrivalSpeed="26.62" duration="69.00" routeLength="994.90" waitingTime="0.00" waitingCount="0" stopTime="0.00" timeLoss="32.79" rerouteNo="0" devices="tripinfo_westEastBottom0.13 ssm_westEastBottom0.13" vType="carCustom" speedFactor="0.92" vaporized=""/>
    <tripinfo id="westEastTop.23" depart="113.00" departLane="westJunction_1" departPos="5.10" departSpeed="11.87" departDelay="1.29" arrival="212.00" arrivalLane="junctionEast_1" arrivalPos="492.80" arrivalSpeed="27.67" duration="99.00" routeLength="994.90" waitingTime="0.00" waitingCount="0" stopTime="0.00" timeLoss="63.10" rerouteNo="0" devices="tripinfo_westEastTop.23 ssm_westEastTop.23" vType="carCustom" speedFactor="1.08" vaporized=""/>