<?xml version="1.0" encoding="UTF-8"?>

<!-- generated on 2025-04-29 06:49:11 by Eclipse SUMO sumo Version 1.20.0
<configuration xmlns:xsi="http://www.w3.org/2001/XMLSchema-instance" xsi:noNamespaceSchemaLocation="http://sumo.dlr.de/xsd/sumoConfiguration.xsd">

    <input>
        <net-file value="nets/2lane_unprotected_right/2lane_unprotected_right.net.xml"/>
        <route-files value="nets/2lane_unprotected_right/2lane_unprotected_right.rou.xml"/>
    </input>

    <output>
        <tripinfo-output value="traces/transs50f1_s50_f0.5_random/0103_tripinfo.xml"/>
        <collision-output value="traces/transs50f1_s50_f0.5_random/0103_collisions.xml"/>
        <statistic-output value="traces/transs50f1_s50_f0.5_random/0103_statistics.xml"/>
    </output>

    <processing>
        <collision.action value="teleport"/>
        <collision.check-junctions value="true"/>
        <time-to-teleport value="-1"/>
        <waiting-time-memory value="1000"/>
        <max-depart-delay value="-1"/>
        <default.speeddev value="0.1"/>
    </processing>

    <report>
        <no-warnings value="true"/>
    </report>

    <ssm_device>
        <device.ssm.probability value="1.0"/>
        <device.ssm.measures value="BR"/>
        <device.ssm.file value="/Users/finn/Code/CausalKnowledgeTransfer-4-SafeRL/traces/transs50f1_s50_f0.5_random/0103_ssm.xml"/>
    </ssm_device>

    <traci_server>
        <remote-port value="63684"/>
    </traci_server>

    <random_number>
        <random value="true"/>
    </random_number>

</configuration>
-->

<tripinfos xmlns:xsi="http://www.w3.org/2001/XMLSchema-instance" xsi:noNamespaceSchemaLocation="http://sumo.dlr.de/xsd/tripinfo_file.xsd">
    <tripinfo id="westEastBottom0.0" depart="1.00" departLane="westJunction_0" departPos="5.10" departSpeed="27.78" departDelay="0.83" arrival="38.00" arrivalLane="junctionEast_0" arrivalPos="492.80" arrivalSpeed="26.54" duration="37.00" routeLength="994.90" waitingTime="0.00" waitingCount="0" stopTime="0.00" timeLoss="1.00" rerouteNo="0" devices="tripinfo_westEastBottom0.0 ssm_westEastBottom0.0" vType="carCustom" speedFactor="1.16" vaporized=""/>
    <tripinfo id="westEastTop.0" depart="4.00" departLane="westJunction_1" departPos="5.10" departSpeed="27.78" departDelay="0.54" arrival="41.00" arrivalLane="junctionEast_1" arrivalPos="492.80" arrivalSpeed="27.63" duration="37.00" routeLength="994.90" waitingTime="0.00" waitingCount="0" stopTime="0.00" timeLoss="0.97" rerouteNo="0" devices="tripinfo_westEastTop.0 ssm_westEastTop.0" vType="carCustom" speedFactor="1.10" vaporized=""/>
    <tripinfo id="westEastTop.1" depart="6.00" departLane="westJunction_1" departPos="5.10" departSpeed="27.14" departDelay="2.15" arrival="51.00" arrivalLane="junctionEast_1" arrivalPos="492.80" arrivalSpeed="27.03" duration="45.00" routeLength="994.90" waitingTime="0.00" waitingCount="0" stopTime="0.00" timeLoss="8.62" rerouteNo="0" devices="tripinfo_westEastTop.1 ssm_westEastTop.1" vType="carCustom" speedFactor="1.01" vaporized=""/>
    <tripinfo id="westEastBottom0.3" depart="17.00" departLane="westJunction_0" departPos="5.10" departSpeed="18.45" departDelay="0.94" arrival="51.00" arrivalLane="junctionEast_0" arrivalPos="492.80" arrivalSpeed="14.48" duration="34.00" routeLength="994.90" waitingTime="0.00" waitingCount="0" stopTime="0.00" timeLoss="15.52" rerouteNo="0" devices="tripinfo_westEastBottom0.3 ssm_westEastBottom0.3" vType="carCustom" speedFactor="0.99" vaporized="teleport"/>
    <tripinfo id="southEast.0" depart="3.00" departLane="southJunction_0" departPos="5.10" departSpeed="27.78" departDelay="0.36" arrival="52.00" arrivalLane="junctionEast_0" arrivalPos="492.80" arrivalSpeed="27.66" duration="49.00" routeLength="989.53" waitingTime="0.00" waitingCount="0" stopTime="0.00" timeLoss="11.22" rerouteNo="0" devices="tripinfo_southEast.0 ssm_southEast.0" vType="carCustom" speedFactor="1.00" vaporized=""/>
    <tripinfo id="westEastBottom0.1" depart="10.00" departLane="westJunction_0" departPos="5.10" departSpeed="27.33" departDelay="0.95" arrival="59.00" arrivalLane="junctionEast_1" arrivalPos="492.80" arrivalSpeed="27.41" duration="49.00" routeLength="994.90" waitingTime="0.00" waitingCount="0" stopTime="0.00" timeLoss="12.24" rerouteNo="0" devices="tripinfo_westEastBottom0.1 ssm_westEastBottom0.1" vType="carCustom" speedFactor="1.01" vaporized=""/>
    <tripinfo id="southEast.1" depart="9.00" departLane="southJunction_0" departPos="5.10" departSpeed="27.24" departDelay="0.89" arrival="65.00" arrivalLane="junctionEast_1" arrivalPos="492.80" arrivalSpeed="27.05" duration="56.00" routeLength="989.53" waitingTime="0.00" waitingCount="0" stopTime="0.00" timeLoss="19.18" rerouteNo="0" devices="tripinfo_southEast.1 ssm_southEast.1" vType="carCustom" speedFactor="1.05" vaporized=""/>
    <tripinfo id="westEastTop.2" depart="10.00" departLane="westJunction_1" departPos="5.10" departSpeed="19.21" departDelay="0.81" arrival="71.00" arrivalLane="junctionEast_1" arrivalPos="492.80" arrivalSpeed="27.04" duration="61.00" routeLength="994.90" waitingTime="0.00" waitingCount="0" stopTime="0.00" timeLoss="24.59" rerouteNo="0" devices="tripinfo_westEastTop.2 ssm_westEastTop.2" vType="carCustom" speedFactor="0.96" vaporized=""/>
    <tripinfo id="westEastBottom0.2" depart="15.00" departLane="westJunction_0" departPos="5.10" departSpeed="21.67" departDelay="0.92" arrival="77.00" arrivalLane="junctionEast_1" arrivalPos="492.80" arrivalSpeed="27.12" duration="62.00" routeLength="994.90" waitingTime="0.00" waitingCount="0" stopTime="0.00" timeLoss="25.87" rerouteNo="0" devices="tripinfo_westEastBottom0.2 ssm_westEastBottom0.2" vType="carCustom" speedFactor="1.16" vaporized=""/>
    <tripinfo id="southEast.2" depart="11.00" departLane="southJunction_0" departPos="5.10" departSpeed="23.73" departDelay="2.36" arrival="78.00" arrivalLane="junctionEast_0" arrivalPos="492.80" arrivalSpeed="26.87" duration="67.00" routeLength="989.53" waitingTime="0.00" waitingCount="0" stopTime="0.00" timeLoss="29.46" rerouteNo="0" devices="tripinfo_southEast.2 ssm_southEast.2" vType="carCustom" speedFactor="0.87" vaporized=""/>
    <tripinfo id="westEastTop.3" depart="17.00" departLane="westJunction_1" departPos="5.10" departSpeed="14.07" departDelay="0.01" arrival="84.00" arrivalLane="junctionEast_1" arrivalPos="492.80" arrivalSpeed="26.66" duration="67.00" routeLength="994.90" waitingTime="0.00" waitingCount="0" stopTime="0.00" timeLoss="30.35" rerouteNo="0" devices="tripinfo_westEastTop.3 ssm_westEastTop.3" vType="carCustom" speedFactor="0.89" vaporized=""/>
    <tripinfo id="southEast.3" depart="14.00" departLane="southJunction_0" departPos="5.10" departSpeed="17.74" departDelay="0.78" arrival="85.00" arrivalLane="junctionEast_0" arrivalPos="492.80" arrivalSpeed="26.53" duration="71.00" routeLength="989.53" waitingTime="0.00" waitingCount="0" stopTime="0.00" timeLoss="34.50" rerouteNo="0" devices="tripinfo_southEast.3 ssm_southEast.3" vType="carCustom" speedFactor="0.92" vaporized=""/>
    <tripinfo id="southNorth.0" depart="8.00" departLane="southJunction_1" departPos="5.10" departSpeed="27.78" departDelay="0.96" arrival="86.00" arrivalLane="junctionNorth_0" arrivalPos="492.80" arrivalSpeed="27.72" duration="78.00" routeLength="995.01" waitingTime="26.00" waitingCount="1" stopTime="0.00" timeLoss="41.24" rerouteNo="0" devices="tripinfo_southNorth.0 ssm_southNorth.0" vType="carCustom" speedFactor="0.95" vaporized=""/>
    <tripinfo id="westEastTop.4" depart="21.00" departLane="westJunction_1" departPos="5.10" departSpeed="14.69" departDelay="0.96" arrival="92.00" arrivalLane="junctionEast_1" arrivalPos="492.80" arrivalSpeed="27.06" duration="71.00" routeLength="994.90" waitingTime="4.00" waitingCount="1" stopTime="0.00" timeLoss="34.51" rerouteNo="0" devices="tripinfo_westEastTop.4 ssm_westEastTop.4" vType="carCustom" speedFactor="1.16" vaporized=""/>
    <tripinfo id="westEastBottom0.4" depart="41.00" departLane="westJunction_0" departPos="5.10" departSpeed="17.75" departDelay="0.33" arrival="93.00" arrivalLane="junctionEast_0" arrivalPos="492.80" arrivalSpeed="26.61" duration="52.00" routeLength="994.90" waitingTime="0.00" waitingCount="0" stopTime="0.00" timeLoss="16.07" rerouteNo="0" devices="tripinfo_westEastBottom0.4 ssm_westEastBottom0.4" vType="carCustom" speedFactor="1.01" vaporized=""/>
    <tripinfo id="westEastTop.5" depart="29.00" departLane="westJunction_1" departPos="5.10" departSpeed="13.15" departDelay="0.53" arrival="99.00" arrivalLane="junctionEast_1" arrivalPos="492.80" arrivalSpeed="27.53" duration="70.00" routeLength="994.90" waitingTime="0.00" waitingCount="0" stopTime="0.00" timeLoss="33.93" rerouteNo="0" devices="tripinfo_westEastTop.5 ssm_westEastTop.5" vType="carCustom" speedFactor="0.96" vaporized=""/>
    <tripinfo id="southNorth.1" depart="26.00" departLane="southJunction_1" departPos="5.10" departSpeed="14.65" departDelay="0.78" arrival="100.00" arrivalLane="junctionNorth_0" arrivalPos="492.80" arrivalSpeed="27.46" duration="74.00" routeLength="995.01" waitingTime="11.00" waitingCount="2" stopTime="0.00" timeLoss="38.15" rerouteNo="0" devices="tripinfo_southNorth.1 ssm_southNorth.1" vType="carCustom" speedFactor="1.03" vaporized=""/>
    <tripinfo id="southEast.4" depart="31.00" departLane="southJunction_0" departPos="5.10" departSpeed="12.89" departDelay="0.40" arrival="100.00" arrivalLane="junctionEast_0" arrivalPos="492.80" arrivalSpeed="27.51" duration="69.00" routeLength="989.53" waitingTime="4.00" waitingCount="1" stopTime="0.00" timeLoss="32.40" rerouteNo="0" devices="tripinfo_southEast.4 ssm_southEast.4" vType="carCustom" speedFactor="1.06" vaporized=""/>
    <tripinfo id="westEastTop.6" depart="31.00" departLane="westJunction_1" departPos="5.10" departSpeed="12.59" departDelay="0.03" arrival="107.00" arrivalLane="junctionEast_1" arrivalPos="492.80" arrivalSpeed="27.56" duration="76.00" routeLength="994.90" waitingTime="0.00" waitingCount="0" stopTime="0.00" timeLoss="39.61" rerouteNo="0" devices="tripinfo_westEastTop.6 ssm_westEastTop.6" vType="carCustom" speedFactor="0.85" vaporized=""/>
    <tripinfo id="southEast.5" depart="47.00" departLane="southJunction_0" departPos="5.10" departSpeed="16.49" departDelay="0.79" arrival="108.00" arrivalLane="junctionEast_0" arrivalPos="492.80" arrivalSpeed="27.01" duration="61.00" routeLength="989.53" waitingTime="0.00" waitingCount="0" stopTime="0.00" timeLoss="23.75" rerouteNo="0" devices="tripinfo_southEast.5 ssm_southEast.5" vType="carCustom" speedFactor="0.89" vaporized=""/>
    <tripinfo id="westEastTop.7" depart="37.00" departLane="westJunction_1" departPos="5.10" departSpeed="8.94" departDelay="0.47" arrival="114.00" arrivalLane="junctionEast_1" arrivalPos="492.80" arrivalSpeed="27.30" duration="77.00" routeLength="994.90" waitingTime="0.00" waitingCount="0" stopTime="0.00" timeLoss="40.82" rerouteNo="0" devices="tripinfo_westEastTop.7 ssm_westEastTop.7" vType="carCustom" speedFactor="1.24" vaporized=""/>
    <tripinfo id="southNorth.2" depart="29.00" departLane="southJunction_1" departPos="5.10" departSpeed="20.27" departDelay="0.75" arrival="115.00" arrivalLane="junctionNorth_0" arrivalPos="492.80" arrivalSpeed="26.73" duration="86.00" routeLength="995.01" waitingTime="14.00" waitingCount="2" stopTime="0.00" timeLoss="50.13" rerouteNo="0" devices="tripinfo_southNorth.2 ssm_southNorth.2" vType="carCustom" speedFactor="0.97" vaporized=""/>
    <tripinfo id="southEast.6" depart="56.00" departLane="southJunction_0" departPos="5.10" departSpeed="18.20" departDelay="0.46" arrival="116.00" arrivalLane="junctionEast_0" arrivalPos="492.80" arrivalSpeed="27.13" duration="60.00" routeLength="989.53" waitingTime="0.00" waitingCount="0" stopTime="0.00" timeLoss="22.90" rerouteNo="0" devices="tripinfo_southEast.6 ssm_southEast.6" vType="carCustom" speedFactor="1.05" vaporized=""/>
    <tripinfo id="westEastTop.8" depart="39.00" departLane="westJunction_1" departPos="5.10" departSpeed="9.03" departDelay="2.25" arrival="122.00" arrivalLane="junctionEast_1" arrivalPos="492.80" arrivalSpeed="27.41" duration="83.00" routeLength="994.90" waitingTime="5.00" waitingCount="1" stopTime="0.00" timeLoss="47.06" rerouteNo="0" devices="tripinfo_westEastTop.8 ssm_westEastTop.8" vType="carCustom" speedFactor="0.98" vaporized=""/>
    <tripinfo id="southNorth.3" depart="32.00" departLane="southJunction_1" departPos="5.10" departSpeed="15.02" departDelay="0.22" arrival="123.00" arrivalLane="junctionNorth_0" arrivalPos="492.80" arrivalSpeed="27.21" duration="91.00" routeLength="995.01" waitingTime="8.00" waitingCount="1" stopTime="0.00" timeLoss="54.54" rerouteNo="0" devices="tripinfo_southNorth.3 ssm_southNorth.3" vType="carCustom" speedFactor="1.12" vaporized=""/>
    <tripinfo id="westEastBottom0.5" depart="71.00" departLane="westJunction_0" departPos="5.10" departSpeed="27.78" departDelay="0.11" arrival="124.00" arrivalLane="junctionEast_0" arrivalPos="492.80" arrivalSpeed="27.31" duration="53.00" routeLength="994.90" waitingTime="0.00" waitingCount="0" stopTime="0.00" timeLoss="16.49" rerouteNo="0" devices="tripinfo_westEastBottom0.5 ssm_westEastBottom0.5" vType="carCustom" speedFactor="1.09" vaporized=""/>
    <tripinfo id="westEastTop.9" depart="42.00" departLane="westJunction_1" departPos="5.10" departSpeed="5.04" departDelay="3.90" arrival="129.00" arrivalLane="junctionEast_1" arrivalPos="492.80" arrivalSpeed="27.54" duration="87.00" routeLength="994.90" waitingTime="0.00" waitingCount="0" stopTime="0.00" timeLoss="51.09" rerouteNo="0" devices="tripinfo_westEastTop.9 ssm_westEastTop.9" vType="carCustom" speedFactor="0.95" vaporized=""/>
    <tripinfo id="southNorth.4" depart="42.00" departLane="southJunction_1" departPos="5.10" departSpeed="13.55" departDelay="0.03" arrival="131.00" arrivalLane="junctionNorth_0" arrivalPos="492.80" arrivalSpeed="26.95" duration="89.00" routeLength="995.01" waitingTime="9.00" waitingCount="2" stopTime="0.00" timeLoss="52.89" rerouteNo="0" devices="tripinfo_southNorth.4 ssm_southNorth.4" vType="carCustom" speedFactor="0.84" vaporized=""/>
    <tripinfo id="westEastBottom0.6" depart="79.00" departLane="westJunction_0" departPos="5.10" departSpeed="20.10" departDelay="0.45" arrival="136.00" arrivalLane="junctionEast_1" arrivalPos="492.80" arrivalSpeed="27.32" duration="57.00" routeLength="994.90" waitingTime="0.00" waitingCount="0" stopTime="0.00" timeLoss="20.69" rerouteNo="0" devices="tripinfo_westEastBottom0.6 ssm_westEastBottom0.6" vType="carCustom" speedFactor="0.84" vaporized=""/>
    <tripinfo id="southNorth.5" depart="59.00" departLane="southJunction_1" departPos="5.10" departSpeed="13.53" departDelay="0.90" arrival="138.00" arrivalLane="junctionNorth_0" arrivalPos="492.80" arrivalSpeed="27.28" duration="79.00" routeLength="995.01" waitingTime="2.00" waitingCount="1" stopTime="0.00" timeLoss="43.03" rerouteNo="0" devices="tripinfo_southNorth.5 ssm_southNorth.5" vType="carCustom" speedFactor="1.07" vaporized=""/>
    <tripinfo id="westEastTop.10" depart="45.00" departLane="westJunction_1" departPos="5.10" departSpeed="5.35" departDelay="3.75" arrival="142.00" arrivalLane="junctionEast_1" arrivalPos="492.80" arrivalSpeed="27.21" duration="97.00" routeLength="994.90" waitingTime="1.00" waitingCount="1" stopTime="0.00" timeLoss="60.95" rerouteNo="0" devices="tripinfo_westEastTop.10 ssm_westEastTop.10" vType="carCustom" speedFactor="0.93" vaporized=""/>
    <tripinfo id="southEast.7" depart="82.00" departLane="southJunction_0" departPos="5.10" departSpeed="12.20" departDelay="0.57" arrival="143.00" arrivalLane="junctionEast_0" arrivalPos="492.80" arrivalSpeed="27.68" duration="61.00" routeLength="989.53" waitingTime="0.00" waitingCount="0" stopTime="0.00" timeLoss="23.72" rerouteNo="0" devices="tripinfo_southEast.7 ssm_southEast.7" vType="carCustom" speedFactor="1.06" vaporized=""/>
    <tripinfo id="southNorth.6" depart="62.00" departLane="southJunction_1" departPos="5.10" departSpeed="19.36" departDelay="0.67" arrival="145.00" arrivalLane="junctionNorth_0" arrivalPos="492.80" arrivalSpeed="27.25" duration="83.00" routeLength="995.01" waitingTime="1.00" waitingCount="1" stopTime="0.00" timeLoss="46.97" rerouteNo="0" devices="tripinfo_southNorth.6 ssm_southNorth.6" vType="carCustom" speedFactor="0.94" vaporized=""/>
    <tripinfo id="westEastTop.11" depart="49.00" departLane="westJunction_1" departPos="5.10" departSpeed="4.17" departDelay="6.47" arrival="149.00" arrivalLane="junctionEast_1" arrivalPos="492.80" arrivalSpeed="26.98" duration="100.00" routeLength="994.90" waitingTime="3.00" waitingCount="1" stopTime="0.00" timeLoss="64.14" rerouteNo="0" devices="tripinfo_westEastTop.11 ssm_westEastTop.11" vType="carCustom" speedFactor="1.19" vaporized=""/>
    <tripinfo id="westEastBottom0.7" depart="86.00" departLane="westJunction_0" departPos="5.10" departSpeed="15.81" departDelay="0.38" arrival="150.00" arrivalLane="junctionEast_0" arrivalPos="492.80" arrivalSpeed="27.33" duration="64.00" routeLength="994.90" waitingTime="0.00" waitingCount="0" stopTime="0.00" timeLoss="27.69" rerouteNo="0" devices="tripinfo_westEastBottom0.7 ssm_westEastBottom0.7" vType="carCustom" speedFactor="1.07" vaporized=""/>
    <tripinfo id="westEastTop.12" depart="54.00" departLane="westJunction_1" departPos="5.10" departSpeed="3.40" departDelay="0.80" arrival="156.00" arrivalLane="junctionEast_1" arrivalPos="492.80" arrivalSpeed="27.78" duration="102.00" routeLength="994.90" waitingTime="0.00" waitingCount="0" stopTime="0.00" timeLoss="65.70" rerouteNo="0" devices="tripinfo_westEastTop.12 ssm_westEastTop.12" vType="carCustom" speedFactor="1.09" vaporized=""/>
    <tripinfo id="southEast.8" depart="84.00" departLane="southJunction_0" departPos="5.10" departSpeed="15.70" departDelay="1.23" arrival="156.00" arrivalLane="junctionEast_0" arrivalPos="492.80" arrivalSpeed="27.11" duration="72.00" routeLength="989.53" waitingTime="0.00" waitingCount="0" stopTime="0.00" timeLoss="35.57" rerouteNo="0" devices="tripinfo_southEast.8 ssm_southEast.8" vType="carCustom" speedFactor="0.93" vaporized=""/>
    <tripinfo id="southNorth.7" depart="64.00" departLane="southJunction_1" departPos="5.10" departSpeed="15.44" departDelay="1.69" arrival="161.00" arrivalLane="junctionNorth_0" arrivalPos="492.80" arrivalSpeed="26.76" duration="97.00" routeLength="995.01" waitingTime="15.00" waitingCount="1" stopTime="0.00" timeLoss="60.65" rerouteNo="0" devices="tripinfo_southNorth.7 ssm_southNorth.7" vType="carCustom" speedFactor="0.97" vaporized=""/>
    <tripinfo id="westEastTop.13" depart="64.00" departLane="westJunction_1" departPos="5.10" departSpeed="5.95" departDelay="0.81" arrival="163.00" arrivalLane="junctionEast_1" arrivalPos="492.80" arrivalSpeed="27.71" duration="99.00" routeLength="994.90" waitingTime="0.00" waitingCount="0" stopTime="0.00" timeLoss="62.27" rerouteNo="0" devices="tripinfo_westEastTop.13 ssm_westEastTop.13" vType="carCustom" speedFactor="1.00" vaporized=""/>
    <tripinfo id="westEastBottom0.8" depart="100.00" departLane="westJunction_0" departPos="5.10" departSpeed="16.01" departDelay="0.41" arrival="163.00" arrivalLane="junctionEast_0" arrivalPos="492.80" arrivalSpeed="26.56" duration="63.00" routeLength="994.90" waitingTime="0.00" waitingCount="0" stopTime="0.00" timeLoss="26.81" rerouteNo="0" devices="tripinfo_westEastBottom0.8 ssm_westEastBottom0.8" vType="carCustom" speedFactor="0.94" vaporized=""/>
    <tripinfo id="westEastTop.14" depart="75.00" departLane="westJunction_1" departPos="5.10" departSpeed="6.38" departDelay="0.10" arrival="169.00" arrivalLane="junctionEast_1" arrivalPos="492.80" arrivalSpeed="26.60" duration="94.00" routeLength="994.90" waitingTime="0.00" waitingCount="0" stopTime="0.00" timeLoss="57.88" rerouteNo="0" devices="tripinfo_westEastTop.14 ssm_westEastTop.14" vType="carCustom" speedFactor="1.07" vaporized=""/>
    <tripinfo id="southEast.9" depart="95.00" departLane="southJunction_0" departPos="5.10" departSpeed="13.28" departDelay="0.44" arrival="170.00" arrivalLane="junctionEast_0" arrivalPos="492.80" arrivalSpeed="26.58" duration="75.00" routeLength="989.53" waitingTime="0.00" waitingCount="0" stopTime="0.00" timeLoss="37.77" rerouteNo="0" devices="tripinfo_southEast.9 ssm_southEast.9" vType="carCustom" speedFactor="1.09" vaporized=""/>
    <tripinfo id="southNorth.8" depart="66.00" departLane="southJunction_1" departPos="5.10" departSpeed="11.44" departDelay="0.12" arrival="171.00" arrivalLane="junctionNorth_0" arrivalPos="492.80" arrivalSpeed="26.64" duration="105.00" routeLength="995.01" waitingTime="15.00" waitingCount="2" stopTime="0.00" timeLoss="68.91" rerouteNo="0" devices="tripinfo_southNorth.8 ssm_southNorth.8" vType="carCustom" speedFactor="0.88" vaporized=""/>
    <tripinfo id="westEastTop.15" depart="77.00" departLane="westJunction_1" departPos="5.10" departSpeed="10.66" departDelay="0.78" arrival="175.00" arrivalLane="junctionEast_1" arrivalPos="492.80" arrivalSpeed="27.47" duration="98.00" routeLength="994.90" waitingTime="0.00" waitingCount="0" stopTime="0.00" timeLoss="62.04" rerouteNo="0" devices="tripinfo_westEastTop.15 ssm_westEastTop.15" vType="carCustom" speedFactor="0.96" vaporized=""/>
    <tripinfo id="westEastBottom0.9" depart="107.00" departLane="westJunction_0" departPos="5.10" departSpeed="15.99" departDelay="0.70" arrival="176.00" arrivalLane="junctionEast_0" arrivalPos="492.80" arrivalSpeed="27.52" duration="69.00" routeLength="994.90" waitingTime="0.00" waitingCount="0" stopTime="0.00" timeLoss="32.60" rerouteNo="0" devices="tripinfo_westEastBottom0.9 ssm_westEastBottom0.9" vType="carCustom" speedFactor="0.99" vaporized=""/>
    <tripinfo id="westEastTop.16" depart="79.00" departLane="westJunction_1" departPos="5.10" departSpeed="6.78" departDelay="0.59" arrival="182.00" arrivalLane="junctionEast_1" arrivalPos="492.80" arrivalSpeed="26.71" duration="103.00" routeLength="994.90" waitingTime="3.00" waitingCount="1" stopTime="0.00" timeLoss="66.62" rerouteNo="0" devices="tripinfo_westEastTop.16 ssm_westEastTop.16" vType="carCustom" speedFactor="1.13" vaporized=""/>
    <tripinfo id="southEast.10" depart="119.00" departLane="southJunction_0" departPos="5.10" departSpeed="13.09" departDelay="0.59" arrival="182.00" arrivalLane="junctionEast_0" arrivalPos="492.80" arrivalSpeed="26.75" duration="63.00" routeLength="989.53" waitingTime="0.00" waitingCount="0" stopTime="0.00" timeLoss="25.55" rerouteNo="0" devices="tripinfo_southEast.10 ssm_southEast.10" vType="carCustom" speedFactor="0.99" vaporized=""/>
    <tripinfo id="southNorth.9" depart="68.00" departLane="southJunction_1" departPos="5.10" departSpeed="7.55" departDelay="0.87" arrival="186.00" arrivalLane="junctionNorth_0" arrivalPos="492.80" arrivalSpeed="27.65" duration="118.00" routeLength="995.01" waitingTime="18.00" waitingCount="3" stopTime="0.00" timeLoss="81.82" rerouteNo="0" devices="tripinfo_southNorth.9 ssm_southNorth.9" vType="carCustom" speedFactor="1.13" vaporized=""/>
    <tripinfo id="westEastBottom0.10" depart="110.00" departLane="westJunction_0" departPos="5.10" departSpeed="16.11" departDelay="0.76" arrival="188.00" arrivalLane="junctionEast_0" arrivalPos="492.80" arrivalSpeed="26.64" duration="78.00" routeLength="994.90" waitingTime="0.00" waitingCount="0" stopTime="0.00" timeLoss="41.93" rerouteNo="0" devices="tripinfo_westEastBottom0.10 ssm_westEastBottom0.10" vType="carCustom" speedFactor="1.13" vaporized=""/>
    <tripinfo id="westEastTop.17" depart="82.00" departLane="westJunction_1" departPos="5.10" departSpeed="4.09" departDelay="1.24" arrival="189.00" arrivalLane="junctionEast_1" arrivalPos="492.80" arrivalSpeed="26.98" duration="107.00" routeLength="994.90" waitingTime="0.00" waitingCount="0" stopTime="0.00" timeLoss="70.28" rerouteNo="0" devices="tripinfo_westEastTop.17 ssm_westEastTop.17" vType="carCustom" speedFactor="0.84" vaporized=""/>
    <tripinfo id="southEast.11" depart="124.00" departLane="southJunction_0" departPos="5.10" departSpeed="21.30" departDelay="0.52" arrival="194.00" arrivalLane="junctionEast_0" arrivalPos="492.80" arrivalSpeed="26.50" duration="70.00" routeLength="989.53" waitingTime="0.00" waitingCount="0" stopTime="0.00" timeLoss="32.81" rerouteNo="0" devices="tripinfo_southEast.11 ssm_southEast.11" vType="carCustom" speedFactor="1.09" vaporized=""/>
    <tripinfo id="westEastTop.18" depart="90.00" departLane="westJunction_1" departPos="5.10" departSpeed="5.35" departDelay="0.25" arrival="195.00" arrivalLane="junctionEast_1" arrivalPos="492.80" arrivalSpeed="27.07" duration="105.00" routeLength="994.90" waitingTime="0.00" waitingCount="0" stopTime="0.00" timeLoss="68.62" rerouteNo="0" devices="tripinfo_westEastTop.18 ssm_westEastTop.18" vType="carCustom" speedFactor="1.10" vaporized=""/>
    <tripinfo id="southNorth.10" depart="82.00" departLane="southJunction_1" departPos="5.10" departSpeed="7.50" departDelay="0.14" arrival="196.00" arrivalLane="junctionNorth_0" arrivalPos="492.80" arrivalSpeed="26.51" duration="114.00" routeLength="995.01" waitingTime="13.00" waitingCount="3" stopTime="0.00" timeLoss="77.37" rerouteNo="0" devices="tripinfo_southNorth.10 ssm_southNorth.10" vType="carCustom" speedFactor="1.05" vaporized=""/>
    <tripinfo id="westEastBottom0.11" depart="124.00" departLane="westJunction_0" departPos="5.10" departSpeed="13.07" departDelay="0.98" arrival="200.00" arrivalLane="junctionEast_0" arrivalPos="492.80" arrivalSpeed="26.90" duration="76.00" routeLength="994.90" waitingTime="0.00" waitingCount="0" stopTime="0.00" timeLoss="39.81" rerouteNo="0" devices="tripinfo_westEastBottom0.11 ssm_westEastBottom0.11" vType="carCustom" speedFactor="1.08" vaporized=""/>
    <tripinfo id="westEastTop.19" depart="100.00" departLane="westJunction_1" departPos="5.10" departSpeed="6.37" departDelay="0.97" arrival="201.00" arrivalLane="junctionEast_1" arrivalPos="492.80" arrivalSpeed="27.33" duration="101.00" routeLength="994.90" waitingTime="0.00" waitingCount="0" stopTime="0.00" timeLoss="64.85" rerouteNo="0" devices="tripinfo_westEastTop.19 ssm_westEastTop.19" vType="carCustom" speedFactor="0.94" vaporized=""/>
    <tripinfo id="southNorth.11" depart="113.00" departLane="southJunction_1" departPos="5.10" departSpeed="9.31" departDelay="0.84" arrival="203.00" arrivalLane="junctionNorth_0" arrivalPos="492.80" arrivalSpeed="27.05" duration="90.00" routeLength="995.01" waitingTime="7.00" waitingCount="2" stopTime="0.00" timeLoss="53.64" rerouteNo="0" devices="tripinfo_southNorth.11 ssm_southNorth.11" vType="carCustom" speedFactor="0.90" vaporized=""/>
    <tripinfo id="westEastBottom0.12" depart="126.00" departLane="westJunction_0" departPos="5.10" departSpeed="16.96" departDelay="1.18" arrival="206.00" arrivalLane="junctionEast_0" arrivalPos="492.80" arrivalSpeed="26.66" duration="80.00" routeLength="994.90" waitingTime="0.00" waitingCount="0" stopTime="0.00" timeLoss="43.92" rerouteNo="0" devices="tripinfo_westEastBottom0.12 ssm_westEastBottom0.12" vType="carCustom" speedFactor="0.77" vaporized=""/>
    <tripinfo id="southEast.12" depart="130.00" departLane="southJunction_0" departPos="5.10" departSpeed="15.92" departDelay="0.96" arrival="207.00" arrivalLane="junctionEast_1" arrivalPos="492.80" arrivalSpeed="26.97" duration="77.00" routeLength="989.53" waitingTime="1.00" waitingCount="1" stopTime="0.00" timeLoss="40.47" rerouteNo="0" devices="tripinfo_southEast.12 ssm_southEast.12" vType="carCustom" speedFactor="0.84" vaporized=""/>
    <tripinfo id="southNorth.12" depart="121.00" departLane="southJunction_1" departPos="5.10" departSpeed="22.52" departDelay="0.76" arrival="210.00" arrivalLane="junctionNorth_0" arrivalPos="492.80" arrivalSpeed="26.58" duration="89.00" routeLength="995.01" waitingTime="4.00" waitingCount="2" stopTime="0.00" timeLoss="53.17" rerouteNo="0" devices="tripinfo_southNorth.12 ssm_southNorth.12" vType="carCustom" speedFactor="1.16" vaporized=""/>
    <tripinfo id="southEast.13" depart="132.00" departLane="southJunction_0" departPos="5.10" departSpeed="13.84" departDelay="1.89" arrival="212.00" arrivalLane="junctionEast_0" arrivalPos="492.80" arrivalSpeed="27.42" duration="80.00" routeLength="989.53" waitingTime="0.00" waitingCount="0" stopTime="0.00" timeLoss="43.37" rerouteNo="0" devices="tripinfo_southEast.13 ssm_southEast.13" vType="carCustom" speedFactor="1.07" vaporized=""/>
    <tripinfo id="westEastTop.20" depart="114.00" departLane="westJunction_1" departPos="5.10" departSpeed="7.31" departDelay="0.58" arrival="213.00" arrivalLane="junctionEast_1" arrivalPos="492.80" arrivalSpeed="27.69" duration="99.00" routeLength="994.90" waitingTime="4.00" waitingCount="1" stopTime="0.00" timeLoss="63.15" rerouteNo="0" devices="tripinfo_westEastTop.20 ssm_westEastTop.20" vType="carCustom" speedFactor="1.03" vaporized=""/>
    <tripinfo id="southNorth.13" depart="126.00" departLane="southJunction_1" departPos="5.10" departSpeed="17.10" departDelay="0.62" arrival="217.00" arrivalLane="junctionNorth_0" arrivalPos="492.80" arrivalSpeed="27.33" duration="91.00" routeLength="995.01" waitingTime="0.00" waitingCount="0" stopTime="0.00" timeLoss="54.85" rerouteNo="0" devices="tripinfo_southNorth.13 ssm_southNorth.13" vType="carCustom" speedFactor="1.00" vaporized=""/>
    <tripinfo id="westEastBottom0.13" depart="150.00" departLane="westJunction_0" departPos="5.10" departSpeed="13.32" departDelay="0.76" arrival="218.00" arrivalLane="junctionEast_0" arrivalPos="492.80" arrivalSpeed="27.67" duration="68.00" routeLength="994.90" waitingTime="0.00" waitingCount="0" stopTime="0.00" timeLoss="31.90" rerouteNo="0" devices="tripinfo_westEastBottom0.13 ssm_westEastBottom0.13" vType="carCustom" speedFactor="1.01" vaporized=""/>