<?xml version="1.0" encoding="UTF-8"?>

<!-- generated on 2025-04-29 07:23:03 by Eclipse SUMO sumo Version 1.20.0
<configuration xmlns:xsi="http://www.w3.org/2001/XMLSchema-instance" xsi:noNamespaceSchemaLocation="http://sumo.dlr.de/xsd/sumoConfiguration.xsd">

    <input>
        <net-file value="nets/2lane_unprotected_right/2lane_unprotected_right.net.xml"/>
        <route-files value="nets/2lane_unprotected_right/2lane_unprotected_right.rou.xml"/>
    </input>

    <output>
        <tripinfo-output value="traces/transs50f1_s50_f0.5_random/0104_tripinfo.xml"/>
        <collision-output value="traces/transs50f1_s50_f0.5_random/0104_collisions.xml"/>
        <statistic-output value="traces/transs50f1_s50_f0.5_random/0104_statistics.xml"/>
    </output>

    <processing>
        <collision.action value="teleport"/>
        <collision.check-junctions value="true"/>
        <time-to-teleport value="-1"/>
        <waiting-time-memory value="1000"/>
        <max-depart-delay value="-1"/>
        <default.speeddev value="0.1"/>
    </processing>

    <report>
        <no-warnings value="true"/>
    </report>

    <ssm_device>
        <device.ssm.probability value="1.0"/>
        <device.ssm.measures value="BR"/>
        <device.ssm.file value="/Users/finn/Code/CausalKnowledgeTransfer-4-SafeRL/traces/transs50f1_s50_f0.5_random/0104_ssm.xml"/>
    </ssm_device>

    <traci_server>
        <remote-port value="63696"/>
    </traci_server>

    <random_number>
        <random value="true"/>
    </random_number>

</configuration>
-->

<tripinfos xmlns:xsi="http://www.w3.org/2001/XMLSchema-instance" xsi:noNamespaceSchemaLocation="http://sumo.dlr.de/xsd/tripinfo_file.xsd">
    <tripinfo id="southEast.3" depart="34.00" departLane="southJunction_0" departPos="5.10" departSpeed="7.16" departDelay="0.27" arrival="99.00" arrivalLane="junctionEast_0" arrivalPos="492.80" arrivalSpeed="7.06" duration="65.00" routeLength="989.53" waitingTime="0.00" waitingCount="0" stopTime="0.00" timeLoss="4.97" rerouteNo="0" devices="tripinfo_southEast.3 ssm_southEast.3" vType="carCustom" speedFactor="1.22" vaporized="teleport"/>
    <tripinfo id="westEastBottom0.4" depart="52.00" departLane="westJunction_0" departPos="5.10" departSpeed="7.18" departDelay="0.48" arrival="118.00" arrivalLane="junctionEast_0" arrivalPos="492.80" arrivalSpeed="5.35" duration="66.00" routeLength="994.90" waitingTime="0.00" waitingCount="0" stopTime="0.00" timeLoss="5.52" rerouteNo="0" devices="tripinfo_westEastBottom0.4 ssm_westEastBottom0.4" vType="carCustom" speedFactor="1.19" vaporized="teleport"/>
    <tripinfo id="southEast.0" depart="3.00" departLane="southJunction_0" departPos="5.10" departSpeed="8.33" departDelay="0.82" arrival="134.00" arrivalLane="junctionEast_0" arrivalPos="492.80" arrivalSpeed="7.22" duration="131.00" routeLength="989.53" waitingTime="0.00" waitingCount="0" stopTime="0.00" timeLoss="11.32" rerouteNo="0" devices="tripinfo_southEast.0 ssm_southEast.0" vType="carCustom" speedFactor="1.08" vaporized=""/>
    <tripinfo id="westEastBottom0.0" depart="4.00" departLane="westJunction_0" departPos="5.10" departSpeed="8.33" departDelay="0.48" arrival="134.00" arrivalLane="junctionEast_1" arrivalPos="492.80" arrivalSpeed="7.73" duration="130.00" routeLength="994.90" waitingTime="0.00" waitingCount="0" stopTime="0.00" timeLoss="10.05" rerouteNo="0" devices="tripinfo_westEastBottom0.0 ssm_westEastBottom0.0" vType="carCustom" speedFactor="0.91" vaporized=""/>
    <tripinfo id="westEastTop.0" depart="9.00" departLane="westJunction_1" departPos="5.10" departSpeed="8.33" departDelay="0.37" arrival="138.00" arrivalLane="junctionEast_1" arrivalPos="492.80" arrivalSpeed="8.02" duration="129.00" routeLength="994.90" waitingTime="0.00" waitingCount="0" stopTime="0.00" timeLoss="9.54" rerouteNo="0" devices="tripinfo_westEastTop.0 ssm_westEastTop.0" vType="carCustom" speedFactor="1.06" vaporized=""/>
    <tripinfo id="westEastBottom0.1" depart="9.00" departLane="westJunction_0" departPos="5.10" departSpeed="7.29" departDelay="0.24" arrival="139.00" arrivalLane="junctionEast_0" arrivalPos="492.80" arrivalSpeed="7.08" duration="130.00" routeLength="994.90" waitingTime="0.00" waitingCount="0" stopTime="0.00" timeLoss="9.97" rerouteNo="0" devices="tripinfo_westEastBottom0.1 ssm_westEastBottom0.1" vType="carCustom" speedFactor="1.13" vaporized=""/>
    <tripinfo id="westEastTop.1" depart="14.00" departLane="westJunction_1" departPos="5.10" departSpeed="7.29" departDelay="0.45" arrival="144.00" arrivalLane="junctionEast_0" arrivalPos="492.80" arrivalSpeed="7.16" duration="130.00" routeLength="994.90" waitingTime="0.00" waitingCount="0" stopTime="0.00" timeLoss="9.87" rerouteNo="0" devices="tripinfo_westEastTop.1 ssm_westEastTop.1" vType="carCustom" speedFactor="0.97" vaporized=""/>
    <tripinfo id="southEast.1" depart="19.00" departLane="southJunction_0" departPos="5.10" departSpeed="8.02" departDelay="0.93" arrival="149.00" arrivalLane="junctionEast_0" arrivalPos="492.80" arrivalSpeed="7.45" duration="130.00" routeLength="989.53" waitingTime="0.00" waitingCount="0" stopTime="0.00" timeLoss="10.49" rerouteNo="0" devices="tripinfo_southEast.1 ssm_southEast.1" vType="carCustom" speedFactor="1.09" vaporized=""/>
    <tripinfo id="westEastTop.2" depart="19.00" departLane="westJunction_1" departPos="5.10" departSpeed="8.05" departDelay="0.81" arrival="150.00" arrivalLane="junctionEast_1" arrivalPos="492.80" arrivalSpeed="8.20" duration="131.00" routeLength="994.90" waitingTime="0.00" waitingCount="0" stopTime="0.00" timeLoss="10.65" rerouteNo="0" devices="tripinfo_westEastTop.2 ssm_westEastTop.2" vType="carCustom" speedFactor="1.08" vaporized=""/>
    <tripinfo id="southNorth.0" depart="13.00" departLane="southJunction_1" departPos="5.10" departSpeed="8.33" departDelay="0.10" arrival="152.00" arrivalLane="junctionNorth_0" arrivalPos="492.80" arrivalSpeed="7.73" duration="139.00" routeLength="995.01" waitingTime="6.00" waitingCount="1" stopTime="0.00" timeLoss="19.25" rerouteNo="0" devices="tripinfo_southNorth.0 ssm_southNorth.0" vType="carCustom" speedFactor="0.95" vaporized=""/>
    <tripinfo id="southEast.2" depart="21.00" departLane="southJunction_0" departPos="5.10" departSpeed="8.14" departDelay="2.73" arrival="154.00" arrivalLane="junctionEast_0" arrivalPos="492.80" arrivalSpeed="7.72" duration="133.00" routeLength="989.53" waitingTime="0.00" waitingCount="0" stopTime="0.00" timeLoss="13.27" rerouteNo="0" devices="tripinfo_southEast.2 ssm_southEast.2" vType="carCustom" speedFactor="0.99" vaporized=""/>
    <tripinfo id="southNorth.1" depart="16.00" departLane="southJunction_1" departPos="5.10" departSpeed="8.10" departDelay="1.37" arrival="157.00" arrivalLane="junctionNorth_0" arrivalPos="492.80" arrivalSpeed="7.57" duration="141.00" routeLength="995.01" waitingTime="1.00" waitingCount="1" stopTime="0.00" timeLoss="21.36" rerouteNo="0" devices="tripinfo_southNorth.1 ssm_southNorth.1" vType="carCustom" speedFactor="0.93" vaporized=""/>
    <tripinfo id="westEastTop.3" depart="26.00" departLane="westJunction_1" departPos="5.10" departSpeed="7.64" departDelay="0.64" arrival="158.00" arrivalLane="junctionEast_0" arrivalPos="492.80" arrivalSpeed="8.27" duration="132.00" routeLength="994.90" waitingTime="0.00" waitingCount="0" stopTime="0.00" timeLoss="12.30" rerouteNo="0" devices="tripinfo_westEastTop.3 ssm_westEastTop.3" vType="carCustom" speedFactor="0.90" vaporized=""/>
    <tripinfo id="westEastBottom0.2" depart="23.00" departLane="westJunction_0" departPos="5.10" departSpeed="7.35" departDelay="0.79" arrival="163.00" arrivalLane="junctionEast_0" arrivalPos="492.80" arrivalSpeed="7.28" duration="140.00" routeLength="994.90" waitingTime="1.00" waitingCount="1" stopTime="0.00" timeLoss="19.89" rerouteNo="0" devices="tripinfo_westEastBottom0.2 ssm_westEastBottom0.2" vType="carCustom" speedFactor="1.18" vaporized=""/>
    <tripinfo id="westEastBottom0.3" depart="33.00" departLane="westJunction_0" departPos="5.10" departSpeed="7.65" departDelay="0.64" arrival="164.00" arrivalLane="junctionEast_1" arrivalPos="492.80" arrivalSpeed="8.24" duration="131.00" routeLength="994.90" waitingTime="0.00" waitingCount="0" stopTime="0.00" timeLoss="10.77" rerouteNo="0" devices="tripinfo_westEastBottom0.3 ssm_westEastBottom0.3" vType="carCustom" speedFactor="1.05" vaporized=""/>
    <tripinfo id="westEastTop.4" depart="28.00" departLane="westJunction_1" departPos="5.10" departSpeed="7.51" departDelay="0.26" arrival="167.00" arrivalLane="junctionEast_0" arrivalPos="492.80" arrivalSpeed="7.86" duration="139.00" routeLength="994.90" waitingTime="0.00" waitingCount="0" stopTime="0.00" timeLoss="19.41" rerouteNo="0" devices="tripinfo_westEastTop.4 ssm_westEastTop.4" vType="carCustom" speedFactor="1.01" vaporized=""/>
    <tripinfo id="southNorth.2" depart="19.00" departLane="southJunction_1" departPos="5.10" departSpeed="6.73" departDelay="2.67" arrival="172.00" arrivalLane="junctionNorth_0" arrivalPos="492.80" arrivalSpeed="7.21" duration="153.00" routeLength="995.01" waitingTime="12.00" waitingCount="1" stopTime="0.00" timeLoss="33.25" rerouteNo="0" devices="tripinfo_southNorth.2 ssm_southNorth.2" vType="carCustom" speedFactor="0.85" vaporized=""/>
    <tripinfo id="southEast.4" depart="36.00" departLane="southJunction_0" departPos="5.10" departSpeed="7.54" departDelay="0.19" arrival="172.00" arrivalLane="junctionEast_0" arrivalPos="492.80" arrivalSpeed="7.29" duration="136.00" routeLength="989.53" waitingTime="1.00" waitingCount="1" stopTime="0.00" timeLoss="16.22" rerouteNo="0" devices="tripinfo_southEast.4 ssm_southEast.4" vType="carCustom" speedFactor="1.02" vaporized=""/>
    <tripinfo id="southNorth.3" depart="38.00" departLane="southJunction_1" departPos="5.10" departSpeed="7.70" departDelay="0.23" arrival="177.00" arrivalLane="junctionNorth_0" arrivalPos="492.80" arrivalSpeed="7.14" duration="139.00" routeLength="995.01" waitingTime="0.00" waitingCount="0" stopTime="0.00" timeLoss="18.73" rerouteNo="0" devices="tripinfo_southNorth.3 ssm_southNorth.3" vType="carCustom" speedFactor="0.87" vaporized=""/>
    <tripinfo id="westEastTop.5" depart="43.00" departLane="westJunction_1" departPos="5.10" departSpeed="7.89" departDelay="0.36" arrival="177.00" arrivalLane="junctionEast_0" arrivalPos="492.80" arrivalSpeed="7.62" duration="134.00" routeLength="994.90" waitingTime="1.00" waitingCount="1" stopTime="0.00" timeLoss="14.01" rerouteNo="0" devices="tripinfo_westEastTop.5 ssm_westEastTop.5" vType="carCustom" speedFactor="1.07" vaporized=""/>
    <tripinfo id="westEastBottom0.11" depart="110.00" departLane="westJunction_0" departPos="5.10" departSpeed="7.27" departDelay="1.90" arrival="179.00" arrivalLane="junctionEast_0" arrivalPos="492.80" arrivalSpeed="8.01" duration="69.00" routeLength="994.90" waitingTime="0.00" waitingCount="0" stopTime="0.00" timeLoss="8.42" rerouteNo="0" devices="tripinfo_westEastBottom0.11 ssm_westEastBottom0.11" vType="carCustom" speedFactor="0.99" vaporized="teleport"/>
    <tripinfo id="westEastTop.6" depart="45.00" departLane="westJunction_1" departPos="5.10" departSpeed="7.59" departDelay="0.58" arrival="182.00" arrivalLane="junctionEast_0" arrivalPos="492.80" arrivalSpeed="7.50" duration="137.00" routeLength="994.90" waitingTime="0.00" waitingCount="0" stopTime="0.00" timeLoss="17.01" rerouteNo="0" devices="tripinfo_westEastTop.6 ssm_westEastTop.6" vType="carCustom" speedFactor="1.09" vaporized=""/>
    <tripinfo id="southEast.5" depart="40.00" departLane="southJunction_0" departPos="5.10" departSpeed="5.58" departDelay="0.77" arrival="183.00" arrivalLane="junctionEast_1" arrivalPos="492.80" arrivalSpeed="7.80" duration="143.00" routeLength="989.53" waitingTime="2.00" waitingCount="1" stopTime="0.00" timeLoss="23.46" rerouteNo="0" devices="tripinfo_southEast.5 ssm_southEast.5" vType="carCustom" speedFactor="1.01" vaporized=""/>
    <tripinfo id="southNorth.4" depart="48.00" departLane="southJunction_1" departPos="5.10" departSpeed="8.04" departDelay="0.07" arrival="187.00" arrivalLane="junctionNorth_0" arrivalPos="492.80" arrivalSpeed="7.41" duration="139.00" routeLength="995.01" waitingTime="5.00" waitingCount="1" stopTime="0.00" timeLoss="19.40" rerouteNo="0" devices="tripinfo_southNorth.4 ssm_southNorth.4" vType="carCustom" speedFactor="1.03" vaporized=""/>
    <tripinfo id="westEastTop.7" depart="52.00" departLane="westJunction_1" departPos="5.10" departSpeed="5.98" departDelay="0.65" arrival="187.00" arrivalLane="junctionEast_0" arrivalPos="492.80" arrivalSpeed="8.06" duration="135.00" routeLength="994.90" waitingTime="0.00" waitingCount="0" stopTime="0.00" timeLoss="14.87" rerouteNo="0" devices="tripinfo_westEastTop.7 ssm_westEastTop.7" vType="carCustom" speedFactor="0.99" vaporized=""/>
    <tripinfo id="westEastBottom0.13" depart="119.00" departLane="westJunction_0" departPos="5.10" departSpeed="7.50" departDelay="0.45" arrival="191.00" arrivalLane="junctionEast_0" arrivalPos="492.80" arrivalSpeed="6.30" duration="72.00" routeLength="994.90" waitingTime="0.00" waitingCount="0" stopTime="0.00" timeLoss="11.38" rerouteNo="0" devices="tripinfo_westEastBottom0.13 ssm_westEastBottom0.13" vType="carCustom" speedFactor="1.07" vaporized="teleport"/>
    <tripinfo id="westEastTop.8" depart="56.00" departLane="westJunction_1" departPos="5.10" departSpeed="7.61" departDelay="0.68" arrival="192.00" arrivalLane="junctionEast_1" arrivalPos="492.80" arrivalSpeed="7.78" duration="136.00" routeLength="994.90" waitingTime="1.00" waitingCount="1" stopTime="0.00" timeLoss="16.38" rerouteNo="0" devices="tripinfo_westEastTop.8 ssm_westEastTop.8" vType="carCustom" speedFactor="1.14" vaporized=""/>
    <tripinfo id="westEastBottom0.5" depart="57.00" departLane="westJunction_0" departPos="5.10" departSpeed="8.09" departDelay="0.46" arrival="193.00" arrivalLane="junctionEast_0" arrivalPos="492.80" arrivalSpeed="8.23" duration="136.00" routeLength="994.90" waitingTime="2.00" waitingCount="1" stopTime="0.00" timeLoss="15.66" rerouteNo="0" devices="tripinfo_westEastBottom0.5 ssm_westEastBottom0.5" vType="carCustom" speedFactor="1.01" vaporized=""/>
    <tripinfo id="southNorth.5" depart="52.00" departLane="southJunction_1" departPos="5.10" departSpeed="7.22" departDelay="0.09" arrival="197.00" arrivalLane="junctionNorth_0" arrivalPos="492.80" arrivalSpeed="8.25" duration="145.00" routeLength="995.01" waitingTime="6.00" waitingCount="2" stopTime="0.00" timeLoss="25.06" rerouteNo="0" devices="tripinfo_southNorth.5 ssm_southNorth.5" vType="carCustom" speedFactor="0.77" vaporized=""/>
    <tripinfo id="westEastTop.9" depart="59.00" departLane="westJunction_1" departPos="5.10" departSpeed="7.18" departDelay="0.48" arrival="203.00" arrivalLane="junctionEast_0" arrivalPos="492.80" arrivalSpeed="8.26" duration="144.00" routeLength="994.90" waitingTime="5.00" waitingCount="1" stopTime="0.00" timeLoss="23.76" rerouteNo="0" devices="tripinfo_westEastTop.9 ssm_westEastTop.9" vType="carCustom" speedFactor="1.24" vaporized=""/>
    <tripinfo id="southEast.10" depart="137.00" departLane="southJunction_0" departPos="5.10" departSpeed="8.15" departDelay="0.96" arrival="206.00" arrivalLane="junctionEast_0" arrivalPos="492.80" arrivalSpeed="5.99" duration="69.00" routeLength="989.53" waitingTime="1.00" waitingCount="1" stopTime="0.00" timeLoss="9.09" rerouteNo="0" devices="tripinfo_southEast.10 ssm_southEast.10" vType="carCustom" speedFactor="1.09" vaporized="teleport"/>
    <tripinfo id="southNorth.6" depart="58.00" departLane="southJunction_1" departPos="5.10" departSpeed="7.21" departDelay="0.61" arrival="207.00" arrivalLane="junctionNorth_0" arrivalPos="492.80" arrivalSpeed="7.31" duration="149.00" routeLength="995.01" waitingTime="8.00" waitingCount="2" stopTime="0.00" timeLoss="29.02" rerouteNo="0" devices="tripinfo_southNorth.6 ssm_southNorth.6" vType="carCustom" speedFactor="1.06" vaporized=""/>
    <tripinfo id="westEastBottom0.6" depart="74.00" departLane="westJunction_0" departPos="5.10" departSpeed="7.28" departDelay="0.66" arrival="207.00" arrivalLane="junctionEast_0" arrivalPos="492.80" arrivalSpeed="8.11" duration="133.00" routeLength="994.90" waitingTime="0.00" waitingCount="0" stopTime="0.00" timeLoss="13.35" rerouteNo="0" devices="tripinfo_westEastBottom0.6 ssm_westEastBottom0.6" vType="carCustom" speedFactor="1.02" vaporized=""/>
    <tripinfo id="southEast.6" depart="75.00" departLane="southJunction_0" departPos="5.10" departSpeed="8.22" departDelay="0.20" arrival="207.00" arrivalLane="junctionEast_1" arrivalPos="492.80" arrivalSpeed="7.57" duration="132.00" routeLength="989.53" waitingTime="0.00" waitingCount="0" stopTime="0.00" timeLoss="12.88" rerouteNo="0" devices="tripinfo_southEast.6 ssm_southEast.6" vType="carCustom" speedFactor="1.04" vaporized=""/>
    <tripinfo id="westEastTop.10" depart="68.00" departLane="westJunction_1" departPos="5.10" departSpeed="6.81" departDelay="0.25" arrival="213.00" arrivalLane="junctionEast_0" arrivalPos="492.80" arrivalSpeed="7.66" duration="145.00" routeLength="994.90" waitingTime="5.00" waitingCount="1" stopTime="0.00" timeLoss="24.92" rerouteNo="0" devices="tripinfo_westEastTop.10 ssm_westEastTop.10" vType="carCustom" speedFactor="0.97" vaporized=""/>
    <tripinfo id="southNorth.7" depart="61.00" departLane="southJunction_1" departPos="5.10" departSpeed="7.87" departDelay="0.74" arrival="217.00" arrivalLane="junctionNorth_0" arrivalPos="492.80" arrivalSpeed="7.37" duration="156.00" routeLength="995.01" waitingTime="7.00" waitingCount="2" stopTime="0.00" timeLoss="36.12" rerouteNo="0" devices="tripinfo_southNorth.7 ssm_southNorth.7" vType="carCustom" speedFactor="1.04" vaporized=""/>
    <tripinfo id="southNorth.8" depart="65.00" departLane="southJunction_1" departPos="5.10" departSpeed="6.90" departDelay="0.06" arrival="222.00" arrivalLane="junctionNorth_0" arrivalPos="492.80" arrivalSpeed="8.19" duration="157.00" routeLength="995.01" waitingTime="4.00" waitingCount="2" stopTime="0.00" timeLoss="37.29" rerouteNo="0" devices="tripinfo_southNorth.8 ssm_southNorth.8" vType="carCustom" speedFactor="0.86" vaporized=""/>
    <tripinfo id="westEastTop.11" depart="71.00" departLane="westJunction_1" departPos="5.10" departSpeed="8.14" departDelay="2.94" arrival="222.00" arrivalLane="junctionEast_1" arrivalPos="492.80" arrivalSpeed="7.52" duration="151.00" routeLength="994.90" waitingTime="7.00" waitingCount="2" stopTime="0.00" timeLoss="31.39" rerouteNo="0" devices="tripinfo_westEastTop.11 ssm_westEastTop.11" vType="carCustom" speedFactor="1.06" vaporized=""/>
    <tripinfo id="westEastBottom0.7" depart="86.00" departLane="westJunction_0" departPos="5.10" departSpeed="7.90" departDelay="0.54" arrival="223.00" arrivalLane="junctionEast_0" arrivalPos="492.80" arrivalSpeed="7.48" duration="137.00" routeLength="994.90" waitingTime="3.00" waitingCount="1" stopTime="0.00" timeLoss="17.03" rerouteNo="0" devices="tripinfo_westEastBottom0.7 ssm_westEastBottom0.7" vType="carCustom" speedFactor="0.99" vaporized=""/>
    <tripinfo id="westEastTop.12" depart="74.00" departLane="westJunction_1" departPos="5.10" departSpeed="6.91" departDelay="4.31" arrival="227.00" arrivalLane="junctionEast_1" arrivalPos="492.80" arrivalSpeed="7.27" duration="153.00" routeLength="994.90" waitingTime="4.00" waitingCount="1" stopTime="0.00" timeLoss="33.18" rerouteNo="0" devices="tripinfo_westEastTop.12 ssm_westEastTop.12" vType="carCustom" speedFactor="1.00" vaporized=""/>
    <tripinfo id="westEastBottom0.8" depart="92.00" departLane="westJunction_0" departPos="5.10" departSpeed="8.12" departDelay="0.11" arrival="227.00" arrivalLane="junctionEast_0" arrivalPos="492.80" arrivalSpeed="7.52" duration="135.00" routeLength="994.90" waitingTime="0.00" waitingCount="0" stopTime="0.00" timeLoss="15.47" rerouteNo="0" devices="tripinfo_westEastBottom0.8 ssm_westEastBottom0.8" vType="carCustom" speedFactor="1.04" vaporized=""/>
    <tripinfo id="westEastTop.13" depart="78.00" departLane="westJunction_1" departPos="5.10" departSpeed="5.88" departDelay="0.38" arrival="232.00" arrivalLane="junctionEast_0" arrivalPos="492.80" arrivalSpeed="8.03" duration="154.00" routeLength="994.90" waitingTime="2.00" waitingCount="1" stopTime="0.00" timeLoss="33.82" rerouteNo="0" devices="tripinfo_westEastTop.13 ssm_westEastTop.13" vType="carCustom" speedFactor="1.07" vaporized=""/>
    <tripinfo id="westEastTop.14" depart="85.00" departLane="westJunction_1" departPos="5.10" departSpeed="6.77" departDelay="0.38" arrival="236.00" arrivalLane="junctionEast_0" arrivalPos="492.80" arrivalSpeed="7.06" duration="151.00" routeLength="994.90" waitingTime="0.00" waitingCount="0" stopTime="0.00" timeLoss="31.50" rerouteNo="0" devices="tripinfo_westEastTop.14 ssm_westEastTop.14" vType="carCustom" speedFactor="0.99" vaporized=""/>
    <tripinfo id="westEastTop.15" depart="88.00" departLane="westJunction_1" departPos="5.10" departSpeed="7.16" departDelay="1.06" arrival="241.00" arrivalLane="junctionEast_0" arrivalPos="492.80" arrivalSpeed="8.27" duration="153.00" routeLength="994.90" waitingTime="0.00" waitingCount="0" stopTime="0.00" timeLoss="32.72" rerouteNo="0" devices="tripinfo_westEastTop.15 ssm_westEastTop.15" vType="carCustom" speedFactor="0.93" vaporized=""/>
    <tripinfo id="southEast.14" depart="168.00" departLane="southJunction_0" departPos="5.10" departSpeed="5.85" departDelay="2.03" arrival="242.00" arrivalLane="junctionEast_0" arrivalPos="492.80" arrivalSpeed="3.89" duration="74.00" routeLength="989.53" waitingTime="0.00" waitingCount="0" stopTime="0.00" timeLoss="14.18" rerouteNo="0" devices="tripinfo_southEast.14 ssm_southEast.14" vType="carCustom" speedFactor="1.15" vaporized="teleport"/>
    <tripinfo id="westEastTop.16" depart="91.00" departLane="westJunction_1" departPos="5.10" departSpeed="6.41" departDelay="3.45" arrival="244.00" arrivalLane="junctionEast_1" arrivalPos="492.80" arrivalSpeed="7.58" duration="153.00" routeLength="994.90" waitingTime="0.00" waitingCount="0" stopTime="0.00" timeLoss="33.14" rerouteNo="0" devices="tripinfo_westEastTop.16 ssm_westEastTop.16" vType="carCustom" speedFactor="0.99" vaporized=""/>
    <tripinfo id="westEastBottom0.9" depart="101.00" departLane="westJunction_0" departPos="5.10" departSpeed="7.69" departDelay="0.66" arrival="245.00" arrivalLane="junctionEast_0" arrivalPos="492.80" arrivalSpeed="8.00" duration="144.00" routeLength="994.90" waitingTime="0.00" waitingCount="0" stopTime="0.00" timeLoss="24.07" rerouteNo="0" devices="tripinfo_westEastBottom0.9 ssm_westEastBottom0.9" vType="carCustom" speedFactor="0.99" vaporized=""/>
    <tripinfo id="southNorth.9" depart="72.00" departLane="southJunction_1" departPos="5.10" departSpeed="6.60" departDelay="0.75" arrival="246.00" arrivalLane="junctionNorth_0" arrivalPos="492.80" arrivalSpeed="7.19" duration="174.00" routeLength="995.01" waitingTime="22.00" waitingCount="2" stopTime="0.00" timeLoss="54.47" rerouteNo="0" devices="tripinfo_southNorth.9 ssm_southNorth.9" vType="carCustom" speedFactor="1.10" vaporized=""/>
    <tripinfo id="westEastTop.17" depart="94.00" departLane="westJunction_1" departPos="5.10" departSpeed="4.26" departDelay="6.14" arrival="248.00" arrivalLane="junctionEast_1" arrivalPos="492.80" arrivalSpeed="8.27" duration="154.00" routeLength="994.90" waitingTime="0.00" waitingCount="0" stopTime="0.00" timeLoss="34.46" rerouteNo="0" devices="tripinfo_westEastTop.17 ssm_westEastTop.17" vType="carCustom" speedFactor="0.85" vaporized=""/>
    <tripinfo id="westEastBottom0.10" depart="108.00" departLane="westJunction_0" departPos="5.10" departSpeed="8.07" departDelay="0.29" arrival="249.00" arrivalLane="junctionEast_0" arrivalPos="492.80" arrivalSpeed="7.98" duration="141.00" routeLength="994.90" waitingTime="0.00" waitingCount="0" stopTime="0.00" timeLoss="21.18" rerouteNo="0" devices="tripinfo_westEastBottom0.10 ssm_westEastBottom0.10" vType="carCustom" speedFactor="0.91" vaporized=""/>
    <tripinfo id="westEastTop.18" depart="98.00" departLane="westJunction_1" departPos="5.10" departSpeed="5.31" departDelay="6.30" arrival="253.00" arrivalLane="junctionEast_1" arrivalPos="492.80" arrivalSpeed="8.25" duration="155.00" routeLength="994.90" waitingTime="1.00" waitingCount="1" stopTime="0.00" timeLoss="35.34" rerouteNo="0" devices="tripinfo_westEastTop.18 ssm_westEastTop.18" vType="carCustom" speedFactor="0.83" vaporized=""/>
    <tripinfo id="southEast.7" depart="113.00" departLane="southJunction_0" departPos="5.10" departSpeed="8.13" departDelay="0.95" arrival="253.00" arrivalLane="junctionEast_0" arrivalPos="492.80" arrivalSpeed="8.14" duration="140.00" routeLength="989.53" waitingTime="0.00" waitingCount="0" stopTime="0.00" timeLoss="20.68" rerouteNo="0" devices="tripinfo_southEast.7 ssm_southEast.7" vType="carCustom" speedFactor="1.16" vaporized=""/>
    <tripinfo id="westEastTop.19" depart="101.00" departLane="westJunction_1" departPos="5.10" departSpeed="5.16" departDelay="8.74" arrival="258.00" arrivalLane="junctionEast_1" arrivalPos="492.80" arrivalSpeed="7.48" duration="157.00" routeLength="994.90" waitingTime="0.00" waitingCount="0" stopTime="0.00" timeLoss="37.07" rerouteNo="0" devices="tripinfo_westEastTop.19 ssm_westEastTop.19" vType="carCustom" speedFactor="0.92" vaporized=""/>
    <tripinfo id="southEast.8" depart="116.00" departLane="southJunction_0" departPos="5.10" departSpeed="7.28" departDelay="1.72" arrival="258.00" arrivalLane="junctionEast_0" arrivalPos="492.80" arrivalSpeed="7.34" duration="142.00" routeLength="989.53" waitingTime="0.00" waitingCount="0" stopTime="0.00" timeLoss="22.46" rerouteNo="0" devices="tripinfo_southEast.8 ssm_southEast.8" vType="carCustom" speedFactor="1.10" vaporized=""/>
    <tripinfo id="southNorth.10" depart="109.00" departLane="southJunction_1" departPos="5.10" departSpeed="8.31" departDelay="0.06" arrival="261.00" arrivalLane="junctionNorth_0" arrivalPos="492.80" arrivalSpeed="7.17" duration="152.00" routeLength="995.01" waitingTime="13.00" waitingCount="2" stopTime="0.00" timeLoss="32.47" rerouteNo="0" devices="tripinfo_southNorth.10 ssm_southNorth.10" vType="carCustom" speedFactor="0.91" vaporized=""/>
    <tripinfo id="westEastBottom0.12" depart="117.00" departLane="westJunction_0" departPos="5.10" departSpeed="6.42" departDelay="0.68" arrival="262.00" arrivalLane="junctionEast_0" arrivalPos="492.80" arrivalSpeed="7.64" duration="145.00" routeLength="994.90" waitingTime="0.00" waitingCount="0" stopTime="0.00" timeLoss="25.06" rerouteNo="0" devices="tripinfo_westEastBottom0.12 ssm_westEastBottom0.12" vType="carCustom" speedFactor="1.13" vaporized=""/>
    <tripinfo id="westEastTop.20" depart="105.00" departLane="westJunction_1" departPos="5.10" departSpeed="3.33" departDelay="12.18" arrival="266.00" arrivalLane="junctionEast_0" arrivalPos="492.80" arrivalSpeed="8.15" duration="161.00" routeLength="994.90" waitingTime="0.00" waitingCount="0" stopTime="0.00" timeLoss="41.12" rerouteNo="0" devices="tripinfo_westEastTop.20 ssm_westEastTop.20" vType="carCustom" speedFactor="0.96" vaporized=""/>
    <tripinfo id="westEastTop.21" depart="109.00" departLane="westJunction_1" departPos="5.10" departSpeed="3.63" departDelay="8.70" arrival="267.00" arrivalLane="junctionEast_1" arrivalPos="492.80" arrivalSpeed="7.48" duration="158.00" routeLength="994.90" waitingTime="2.00" waitingCount="1" stopTime="0.00" timeLoss="38.48" rerouteNo="0" devices="tripinfo_westEastTop.21 ssm_westEastTop.21" vType="carCustom" speedFactor="1.01" vaporized=""/>
    <tripinfo id="southEast.9" depart="121.00" departLane="southJunction_0" departPos="5.10" departSpeed="5.83" departDelay="0.29" arrival="270.00" arrivalLane="junctionEast_0" arrivalPos="492.80" arrivalSpeed="7.84" duration="149.00" routeLength="989.53" waitingTime="0.00" waitingCount="0" stopTime="0.00" timeLoss="29.92" rerouteNo="0" devices="tripinfo_southEast.9 ssm_southEast.9" vType="carCustom" speedFactor="1.22" vaporized=""/>
    <tripinfo id="westEastBottom0.14" depart="122.00" departLane="westJunction_0" departPos="5.10" departSpeed="4.96" departDelay="1.31" arrival="272.00" arrivalLane="junctionEast_1" arrivalPos="492.80" arrivalSpeed="7.11" duration="150.00" routeLength="994.90" waitingTime="0.00" waitingCount="0" stopTime="0.00" timeLoss="29.96" rerouteNo="0" devices="tripinfo_westEastBottom0.14 ssm_westEastBottom0.14" vType="carCustom" speedFactor="0.84" vaporized=""/>
    <tripinfo id="westEastBottom0.15" depart="128.00" departLane="westJunction_0" departPos="5.10" departSpeed="5.49" departDelay="0.03" arrival="275.00" arrivalLane="junctionEast_0" arrivalPos="492.80" arrivalSpeed="7.09" duration="147.00" routeLength="994.90" waitingTime="0.00" waitingCount="0" stopTime="0.00" timeLoss="26.77" rerouteNo="0" devices="tripinfo_westEastBottom0.15 ssm_westEastBottom0.15" vType="carCustom" speedFactor="1.12" vaporized=""/>
    <tripinfo id="westEastTop.23" depart="117.00" departLane="westJunction_1" departPos="5.10" departSpeed="4.30" departDelay="7.89" arrival="276.00" arrivalLane="junctionEast_0" arrivalPos="492.80" arrivalSpeed="7.50" duration="159.00" routeLength="994.90" waitingTime="0.00" waitingCount="0" stopTime="0.00" timeLoss="39.03" rerouteNo="0" devices="tripinfo_westEastTop.23 ssm_westEastTop.23" vType="carCustom" speedFactor="1.02" vaporized=""/>
    <tripinfo id="southNorth.11" depart="114.00" departLane="southJunction_1" departPos="5.10" departSpeed="7.11" departDelay="0.86" arrival="276.00" arrivalLane="junctionNorth_0" arrivalPos="492.80" arrivalSpeed="7.55" duration="162.00" routeLength="995.01" waitingTime="19.00" waitingCount="2" stopTime="0.00" timeLoss="42.33" rerouteNo="0" devices="tripinfo_southNorth.11 ssm_southNorth.11" vType="carCustom" speedFactor="1.04" vaporized=""/>