<?xml version="1.0" encoding="UTF-8"?>

<!-- generated on 2025-04-29 07:33:47 by Eclipse SUMO sumo Version 1.20.0
<configuration xmlns:xsi="http://www.w3.org/2001/XMLSchema-instance" xsi:noNamespaceSchemaLocation="http://sumo.dlr.de/xsd/sumoConfiguration.xsd">

    <input>
        <net-file value="nets/2lane_unprotected_right/2lane_unprotected_right.net.xml"/>
        <route-files value="nets/2lane_unprotected_right/2lane_unprotected_right.rou.xml"/>
    </input>

    <output>
        <tripinfo-output value="traces/transs50f1_s50_f0.5_random/0114_tripinfo.xml"/>
        <collision-output value="traces/transs50f1_s50_f0.5_random/0114_collisions.xml"/>
        <statistic-output value="traces/transs50f1_s50_f0.5_random/0114_statistics.xml"/>
    </output>

    <processing>
        <collision.action value="teleport"/>
        <collision.check-junctions value="true"/>
        <time-to-teleport value="-1"/>
        <waiting-time-memory value="1000"/>
        <max-depart-delay value="-1"/>
        <default.speeddev value="0.1"/>
    </processing>

    <report>
        <no-warnings value="true"/>
    </report>

    <ssm_device>
        <device.ssm.probability value="1.0"/>
        <device.ssm.measures value="BR"/>
        <device.ssm.file value="/Users/finn/Code/CausalKnowledgeTransfer-4-SafeRL/traces/transs50f1_s50_f0.5_random/0114_ssm.xml"/>
    </ssm_device>

    <traci_server>
        <remote-port value="63821"/>
    </traci_server>

    <random_number>
        <random value="true"/>
    </random_number>

</configuration>
-->

<tripinfos xmlns:xsi="http://www.w3.org/2001/XMLSchema-instance" xsi:noNamespaceSchemaLocation="http://sumo.dlr.de/xsd/tripinfo_file.xsd">
    <tripinfo id="westEastTop.0" depart="3.00" departLane="westJunction_1" departPos="5.10" departSpeed="22.22" departDelay="0.87" arrival="50.00" arrivalLane="junctionEast_1" arrivalPos="492.80" arrivalSpeed="21.11" duration="47.00" routeLength="994.90" waitingTime="0.00" waitingCount="0" stopTime="0.00" timeLoss="1.55" rerouteNo="0" devices="tripinfo_westEastTop.0 ssm_westEastTop.0" vType="carCustom" speedFactor="1.16" vaporized=""/>
    <tripinfo id="westEastTop.1" depart="5.00" departLane="westJunction_1" departPos="5.10" departSpeed="21.50" departDelay="1.51" arrival="59.00" arrivalLane="junctionEast_1" arrivalPos="492.80" arrivalSpeed="21.52" duration="54.00" routeLength="994.90" waitingTime="0.00" waitingCount="0" stopTime="0.00" timeLoss="8.80" rerouteNo="0" devices="tripinfo_westEastTop.1 ssm_westEastTop.1" vType="carCustom" speedFactor="1.04" vaporized=""/>
    <tripinfo id="southEast.0" depart="1.00" departLane="southJunction_0" departPos="5.10" departSpeed="22.22" departDelay="0.80" arrival="61.00" arrivalLane="junctionEast_0" arrivalPos="492.80" arrivalSpeed="21.11" duration="60.00" routeLength="989.53" waitingTime="2.00" waitingCount="1" stopTime="0.00" timeLoss="14.07" rerouteNo="0" devices="tripinfo_southEast.0 ssm_southEast.0" vType="carCustom" speedFactor="1.04" vaporized=""/>
    <tripinfo id="westEastBottom0.0" depart="10.00" departLane="westJunction_0" departPos="5.10" departSpeed="22.22" departDelay="0.42" arrival="68.00" arrivalLane="junctionEast_0" arrivalPos="492.80" arrivalSpeed="22.10" duration="58.00" routeLength="994.90" waitingTime="0.00" waitingCount="0" stopTime="0.00" timeLoss="12.39" rerouteNo="0" devices="tripinfo_westEastBottom0.0 ssm_westEastBottom0.0" vType="carCustom" speedFactor="1.19" vaporized=""/>
    <tripinfo id="southEast.1" depart="4.00" departLane="southJunction_0" departPos="5.10" departSpeed="21.37" departDelay="0.69" arrival="70.00" arrivalLane="junctionEast_0" arrivalPos="492.80" arrivalSpeed="21.20" duration="66.00" routeLength="989.53" waitingTime="1.00" waitingCount="1" stopTime="0.00" timeLoss="20.62" rerouteNo="0" devices="tripinfo_southEast.1 ssm_southEast.1" vType="carCustom" speedFactor="0.98" vaporized=""/>
    <tripinfo id="westEastBottom0.1" depart="15.00" departLane="westJunction_0" departPos="5.10" departSpeed="22.22" departDelay="0.54" arrival="75.00" arrivalLane="junctionEast_1" arrivalPos="492.80" arrivalSpeed="21.37" duration="60.00" routeLength="994.90" waitingTime="0.00" waitingCount="0" stopTime="0.00" timeLoss="14.52" rerouteNo="0" devices="tripinfo_westEastBottom0.1 ssm_westEastBottom0.1" vType="carCustom" speedFactor="0.99" vaporized=""/>
    <tripinfo id="southNorth.0" depart="6.00" departLane="southJunction_1" departPos="5.10" departSpeed="22.22" departDelay="0.15" arrival="76.00" arrivalLane="junctionNorth_0" arrivalPos="492.80" arrivalSpeed="22.04" duration="70.00" routeLength="995.01" waitingTime="13.00" waitingCount="1" stopTime="0.00" timeLoss="25.19" rerouteNo="0" devices="tripinfo_southNorth.0 ssm_southNorth.0" vType="carCustom" speedFactor="0.99" vaporized=""/>
    <tripinfo id="westEastBottom0.2" depart="19.00" departLane="westJunction_0" departPos="5.10" departSpeed="18.26" departDelay="0.99" arrival="82.00" arrivalLane="junctionEast_1" arrivalPos="492.80" arrivalSpeed="20.92" duration="63.00" routeLength="994.90" waitingTime="0.00" waitingCount="0" stopTime="0.00" timeLoss="18.20" rerouteNo="0" devices="tripinfo_westEastBottom0.2 ssm_westEastBottom0.2" vType="carCustom" speedFactor="1.14" vaporized=""/>
    <tripinfo id="southNorth.1" depart="26.00" departLane="southJunction_1" departPos="5.10" departSpeed="17.12" departDelay="0.94" arrival="86.00" arrivalLane="junctionNorth_0" arrivalPos="492.80" arrivalSpeed="22.22" duration="60.00" routeLength="995.01" waitingTime="0.00" waitingCount="0" stopTime="0.00" timeLoss="14.51" rerouteNo="0" devices="tripinfo_southNorth.1 ssm_southNorth.1" vType="carCustom" speedFactor="0.91" vaporized=""/>
    <tripinfo id="westEastTop.2" depart="8.00" departLane="westJunction_1" departPos="5.10" departSpeed="15.51" departDelay="0.78" arrival="89.00" arrivalLane="junctionEast_0" arrivalPos="492.80" arrivalSpeed="21.26" duration="81.00" routeLength="994.90" waitingTime="0.00" waitingCount="0" stopTime="0.00" timeLoss="35.60" rerouteNo="0" devices="tripinfo_westEastTop.2 ssm_westEastTop.2" vType="carCustom" speedFactor="1.06" vaporized=""/>
    <tripinfo id="southEast.2" depart="23.00" departLane="southJunction_0" departPos="5.10" departSpeed="16.39" departDelay="0.58" arrival="93.00" arrivalLane="junctionEast_0" arrivalPos="492.80" arrivalSpeed="18.61" duration="70.00" routeLength="989.53" waitingTime="2.00" waitingCount="1" stopTime="0.00" timeLoss="24.04" rerouteNo="0" devices="tripinfo_southEast.2 ssm_southEast.2" vType="carCustom" speedFactor="0.91" vaporized=""/>
    <tripinfo id="westEastTop.3" depart="10.00" departLane="westJunction_1" departPos="5.10" departSpeed="11.88" departDelay="2.16" arrival="95.00" arrivalLane="junctionEast_1" arrivalPos="492.80" arrivalSpeed="21.49" duration="85.00" routeLength="994.90" waitingTime="1.00" waitingCount="1" stopTime="0.00" timeLoss="39.86" rerouteNo="0" devices="tripinfo_westEastTop.3 ssm_westEastTop.3" vType="carCustom" speedFactor="1.04" vaporized=""/>
    <tripinfo id="westEastBottom0.3" depart="27.00" departLane="westJunction_0" departPos="5.10" departSpeed="14.20" departDelay="0.03" arrival="100.00" arrivalLane="junctionEast_1" arrivalPos="492.80" arrivalSpeed="20.92" duration="73.00" routeLength="994.90" waitingTime="0.00" waitingCount="0" stopTime="0.00" timeLoss="27.31" rerouteNo="0" devices="tripinfo_westEastBottom0.3 ssm_westEastBottom0.3" vType="carCustom" speedFactor="0.96" vaporized=""/>
    <tripinfo id="westEastBottom0.4" depart="31.00" departLane="westJunction_0" departPos="5.10" departSpeed="14.67" departDelay="0.56" arrival="105.00" arrivalLane="junctionEast_1" arrivalPos="492.80" arrivalSpeed="21.16" duration="74.00" routeLength="994.90" waitingTime="0.00" waitingCount="0" stopTime="0.00" timeLoss="28.46" rerouteNo="0" devices="tripinfo_westEastBottom0.4 ssm_westEastBottom0.4" vType="carCustom" speedFactor="0.95" vaporized=""/>
    <tripinfo id="westEastTop.4" depart="15.00" departLane="westJunction_1" departPos="5.10" departSpeed="7.60" departDelay="0.72" arrival="109.00" arrivalLane="junctionEast_0" arrivalPos="492.80" arrivalSpeed="21.50" duration="94.00" routeLength="994.90" waitingTime="0.00" waitingCount="0" stopTime="0.00" timeLoss="48.84" rerouteNo="0" devices="tripinfo_westEastTop.4 ssm_westEastTop.4" vType="carCustom" speedFactor="1.13" vaporized=""/>
    <tripinfo id="westEastBottom0.5" depart="33.00" departLane="westJunction_0" departPos="5.10" departSpeed="11.67" departDelay="2.36" arrival="112.00" arrivalLane="junctionEast_0" arrivalPos="492.80" arrivalSpeed="19.08" duration="79.00" routeLength="994.90" waitingTime="0.00" waitingCount="0" stopTime="0.00" timeLoss="33.39" rerouteNo="0" devices="tripinfo_westEastBottom0.5 ssm_westEastBottom0.5" vType="carCustom" speedFactor="1.07" vaporized=""/>
    <tripinfo id="westEastTop.5" depart="17.00" departLane="westJunction_1" departPos="5.10" departSpeed="7.65" departDelay="1.82" arrival="114.00" arrivalLane="junctionEast_1" arrivalPos="492.80" arrivalSpeed="21.82" duration="97.00" routeLength="994.90" waitingTime="0.00" waitingCount="0" stopTime="0.00" timeLoss="51.65" rerouteNo="0" devices="tripinfo_westEastTop.5 ssm_westEastTop.5" vType="carCustom" speedFactor="1.00" vaporized=""/>
    <tripinfo id="westEastBottom0.6" depart="39.00" departLane="westJunction_0" departPos="5.10" departSpeed="8.17" departDelay="0.62" arrival="118.00" arrivalLane="junctionEast_0" arrivalPos="492.80" arrivalSpeed="22.12" duration="79.00" routeLength="994.90" waitingTime="0.00" waitingCount="0" stopTime="0.00" timeLoss="33.50" rerouteNo="0" devices="tripinfo_westEastBottom0.6 ssm_westEastBottom0.6" vType="carCustom" speedFactor="0.95" vaporized=""/>
    <tripinfo id="westEastTop.6" depart="20.00" departLane="westJunction_1" departPos="5.10" departSpeed="4.82" departDelay="1.36" arrival="120.00" arrivalLane="junctionEast_1" arrivalPos="492.80" arrivalSpeed="21.44" duration="100.00" routeLength="994.90" waitingTime="0.00" waitingCount="0" stopTime="0.00" timeLoss="54.34" rerouteNo="0" devices="tripinfo_westEastTop.6 ssm_westEastTop.6" vType="carCustom" speedFactor="1.15" vaporized=""/>
    <tripinfo id="southEast.3" depart="53.00" departLane="southJunction_0" departPos="5.10" departSpeed="4.71" departDelay="0.58" arrival="124.00" arrivalLane="junctionEast_0" arrivalPos="492.80" arrivalSpeed="22.11" duration="71.00" routeLength="989.53" waitingTime="2.00" waitingCount="1" stopTime="0.00" timeLoss="25.45" rerouteNo="0" devices="tripinfo_southEast.3 ssm_southEast.3" vType="carCustom" speedFactor="1.03" vaporized=""/>
    <tripinfo id="westEastTop.7" depart="24.00" departLane="westJunction_1" departPos="5.10" departSpeed="3.96" departDelay="4.19" arrival="126.00" arrivalLane="junctionEast_1" arrivalPos="492.80" arrivalSpeed="21.92" duration="102.00" routeLength="994.90" waitingTime="0.00" waitingCount="0" stopTime="0.00" timeLoss="56.42" rerouteNo="0" devices="tripinfo_westEastTop.7 ssm_westEastTop.7" vType="carCustom" speedFactor="0.99" vaporized=""/>
    <tripinfo id="westEastBottom0.8" depart="48.00" departLane="westJunction_0" departPos="5.10" departSpeed="9.32" departDelay="1.68" arrival="130.00" arrivalLane="junctionEast_0" arrivalPos="492.80" arrivalSpeed="22.10" duration="82.00" routeLength="994.90" waitingTime="0.00" waitingCount="0" stopTime="0.00" timeLoss="37.04" rerouteNo="0" devices="tripinfo_westEastBottom0.8 ssm_westEastBottom0.8" vType="carCustom" speedFactor="0.95" vaporized=""/>
    <tripinfo id="westEastBottom0.7" depart="46.00" departLane="westJunction_0" departPos="5.10" departSpeed="9.43" departDelay="0.52" arrival="132.00" arrivalLane="junctionEast_1" arrivalPos="492.80" arrivalSpeed="22.05" duration="86.00" routeLength="994.90" waitingTime="0.00" waitingCount="0" stopTime="0.00" timeLoss="40.49" rerouteNo="0" devices="tripinfo_westEastBottom0.7 ssm_westEastBottom0.7" vType="carCustom" speedFactor="0.94" vaporized=""/>
    <tripinfo id="southEast.6" depart="98.00" departLane="southJunction_0" departPos="5.10" departSpeed="16.64" departDelay="0.94" arrival="132.00" arrivalLane="junctionEast_0" arrivalPos="492.80" arrivalSpeed="5.61" duration="34.00" routeLength="989.53" waitingTime="0.00" waitingCount="0" stopTime="0.00" timeLoss="10.12" rerouteNo="0" devices="tripinfo_southEast.6 ssm_southEast.6" vType="carCustom" speedFactor="0.98" vaporized="teleport"/>
    <tripinfo id="southEast.4" depart="66.00" departLane="southJunction_0" departPos="5.10" departSpeed="21.97" departDelay="0.27" arrival="137.00" arrivalLane="junctionEast_0" arrivalPos="492.80" arrivalSpeed="21.18" duration="71.00" routeLength="989.53" waitingTime="0.00" waitingCount="0" stopTime="0.00" timeLoss="24.76" rerouteNo="0" devices="tripinfo_southEast.4 ssm_southEast.4" vType="carCustom" speedFactor="0.83" vaporized=""/>
    <tripinfo id="westEastTop.8" depart="28.00" departLane="westJunction_1" departPos="5.10" departSpeed="4.49" departDelay="3.86" arrival="138.00" arrivalLane="junctionEast_1" arrivalPos="492.80" arrivalSpeed="21.99" duration="110.00" routeLength="994.90" waitingTime="0.00" waitingCount="0" stopTime="0.00" timeLoss="64.48" rerouteNo="0" devices="tripinfo_westEastTop.8 ssm_westEastTop.8" vType="carCustom" speedFactor="0.94" vaporized=""/>
    <tripinfo id="westEastBottom0.9" depart="60.00" departLane="westJunction_0" departPos="5.10" departSpeed="8.20" departDelay="0.54" arrival="143.00" arrivalLane="junctionEast_0" arrivalPos="492.80" arrivalSpeed="21.13" duration="83.00" routeLength="994.90" waitingTime="0.00" waitingCount="0" stopTime="0.00" timeLoss="37.78" rerouteNo="0" devices="tripinfo_westEastBottom0.9 ssm_westEastBottom0.9" vType="carCustom" speedFactor="1.14" vaporized=""/>
    <tripinfo id="westEastTop.9" depart="38.00" departLane="westJunction_1" departPos="5.10" departSpeed="4.84" departDelay="0.13" arrival="144.00" arrivalLane="junctionEast_1" arrivalPos="492.80" arrivalSpeed="22.11" duration="106.00" routeLength="994.90" waitingTime="0.00" waitingCount="0" stopTime="0.00" timeLoss="60.36" rerouteNo="0" devices="tripinfo_westEastTop.9 ssm_westEastTop.9" vType="carCustom" speedFactor="1.06" vaporized=""/>
    <tripinfo id="westEastBottom0.10" depart="71.00" departLane="westJunction_0" departPos="5.10" departSpeed="11.27" departDelay="0.09" arrival="149.00" arrivalLane="junctionEast_0" arrivalPos="492.80" arrivalSpeed="21.07" duration="78.00" routeLength="994.90" waitingTime="0.00" waitingCount="0" stopTime="0.00" timeLoss="33.08" rerouteNo="0" devices="tripinfo_westEastBottom0.10 ssm_westEastBottom0.10" vType="carCustom" speedFactor="1.04" vaporized=""/>
    <tripinfo id="westEastTop.10" depart="41.00" departLane="westJunction_1" departPos="5.10" departSpeed="6.80" departDelay="2.94" arrival="150.00" arrivalLane="junctionEast_1" arrivalPos="492.80" arrivalSpeed="21.78" duration="109.00" routeLength="994.90" waitingTime="0.00" waitingCount="0" stopTime="0.00" timeLoss="63.32" rerouteNo="0" devices="tripinfo_westEastTop.10 ssm_westEastTop.10" vType="carCustom" speedFactor="1.03" vaporized=""/>
    <tripinfo id="southNorth.2" depart="60.00" departLane="southJunction_1" departPos="5.10" departSpeed="22.22" departDelay="0.79" arrival="151.00" arrivalLane="junctionNorth_0" arrivalPos="492.80" arrivalSpeed="21.35" duration="91.00" routeLength="995.01" waitingTime="34.00" waitingCount="1" stopTime="0.00" timeLoss="46.20" rerouteNo="0" devices="tripinfo_southNorth.2 ssm_southNorth.2" vType="carCustom" speedFactor="1.09" vaporized=""/>
    <tripinfo id="southEast.8" depart="105.00" departLane="southJunction_0" departPos="5.10" departSpeed="10.66" departDelay="0.39" arrival="151.00" arrivalLane="junctionEast_0" arrivalPos="492.80" arrivalSpeed="3.99" duration="46.00" routeLength="989.53" waitingTime="0.00" waitingCount="0" stopTime="0.00" timeLoss="22.24" rerouteNo="0" devices="tripinfo_southEast.8 ssm_southEast.8" vType="carCustom" speedFactor="0.77" vaporized="teleport"/>
    <tripinfo id="westEastTop.11" depart="44.00" departLane="westJunction_1" departPos="5.10" departSpeed="5.32" departDelay="4.66" arrival="156.00" arrivalLane="junctionEast_1" arrivalPos="492.80" arrivalSpeed="21.13" duration="112.00" routeLength="994.90" waitingTime="0.00" waitingCount="0" stopTime="0.00" timeLoss="66.30" rerouteNo="0" devices="tripinfo_westEastTop.11 ssm_westEastTop.11" vType="carCustom" speedFactor="1.16" vaporized=""/>
    <tripinfo id="southEast.5" depart="86.00" departLane="southJunction_0" departPos="5.10" departSpeed="13.94" departDelay="0.57" arrival="156.00" arrivalLane="junctionEast_0" arrivalPos="492.80" arrivalSpeed="21.59" duration="70.00" routeLength="989.53" waitingTime="0.00" waitingCount="0" stopTime="0.00" timeLoss="23.63" rerouteNo="0" devices="tripinfo_southEast.5 ssm_southEast.5" vType="carCustom" speedFactor="0.79" vaporized=""/>
    <tripinfo id="westEastTop.12" depart="48.00" departLane="westJunction_1" departPos="5.10" departSpeed="3.63" departDelay="7.38" arrival="161.00" arrivalLane="junctionEast_1" arrivalPos="492.80" arrivalSpeed="21.21" duration="113.00" routeLength="994.90" waitingTime="0.00" waitingCount="0" stopTime="0.00" timeLoss="68.21" rerouteNo="0" devices="tripinfo_westEastTop.12 ssm_westEastTop.12" vType="carCustom" speedFactor="1.09" vaporized=""/>
    <tripinfo id="southNorth.3" depart="69.00" departLane="southJunction_1" departPos="5.10" departSpeed="21.39" departDelay="0.56" arrival="161.00" arrivalLane="junctionNorth_0" arrivalPos="492.80" arrivalSpeed="21.97" duration="92.00" routeLength="995.01" waitingTime="22.00" waitingCount="2" stopTime="0.00" timeLoss="46.84" rerouteNo="0" devices="tripinfo_southNorth.3 ssm_southNorth.3" vType="carCustom" speedFactor="0.93" vaporized=""/>
    <tripinfo id="westEastBottom0.11" depart="76.00" departLane="westJunction_0" departPos="5.10" departSpeed="14.10" departDelay="0.56" arrival="162.00" arrivalLane="junctionEast_0" arrivalPos="492.80" arrivalSpeed="21.14" duration="86.00" routeLength="994.90" waitingTime="0.00" waitingCount="0" stopTime="0.00" timeLoss="40.98" rerouteNo="0" devices="tripinfo_westEastBottom0.11 ssm_westEastBottom0.11" vType="carCustom" speedFactor="1.05" vaporized=""/>
    <tripinfo id="westEastTop.13" depart="52.00" departLane="westJunction_1" departPos="5.10" departSpeed="3.70" departDelay="6.85" arrival="167.00" arrivalLane="junctionEast_1" arrivalPos="492.80" arrivalSpeed="21.28" duration="115.00" routeLength="994.90" waitingTime="2.00" waitingCount="1" stopTime="0.00" timeLoss="70.08" rerouteNo="0" devices="tripinfo_westEastTop.13 ssm_westEastTop.13" vType="carCustom" speedFactor="0.94" vaporized=""/>
    <tripinfo id="westEastBottom0.12" depart="100.00" departLane="westJunction_0" departPos="5.10" departSpeed="12.05" departDelay="0.34" arrival="168.00" arrivalLane="junctionEast_0" arrivalPos="492.80" arrivalSpeed="21.44" duration="68.00" routeLength="994.90" waitingTime="0.00" waitingCount="0" stopTime="0.00" timeLoss="22.95" rerouteNo="0" devices="tripinfo_westEastBottom0.12 ssm_westEastBottom0.12" vType="carCustom" speedFactor="0.92" vaporized=""/>
    <tripinfo id="southNorth.4" depart="74.00" departLane="southJunction_1" departPos="5.10" departSpeed="20.24" departDelay="0.96" arrival="172.00" arrivalLane="junctionNorth_0" arrivalPos="492.80" arrivalSpeed="21.26" duration="98.00" routeLength="995.01" waitingTime="20.00" waitingCount="3" stopTime="0.00" timeLoss="53.20" rerouteNo="0" devices="tripinfo_southNorth.4 ssm_southNorth.4" vType="carCustom" speedFactor="0.83" vaporized=""/>
    <tripinfo id="westEastTop.14" depart="56.00" departLane="westJunction_1" departPos="5.10" departSpeed="3.95" departDelay="3.63" arrival="174.00" arrivalLane="junctionEast_1" arrivalPos="492.80" arrivalSpeed="21.83" duration="118.00" routeLength="994.90" waitingTime="3.00" waitingCount="1" stopTime="0.00" timeLoss="72.49" rerouteNo="0" devices="tripinfo_westEastTop.14 ssm_westEastTop.14" vType="carCustom" speedFactor="1.13" vaporized=""/>
    <tripinfo id="westEastBottom0.13" depart="102.00" departLane="westJunction_0" departPos="5.10" departSpeed="16.17" departDelay="1.36" arrival="174.00" arrivalLane="junctionEast_0" arrivalPos="492.80" arrivalSpeed="21.88" duration="72.00" routeLength="994.90" waitingTime="0.00" waitingCount="0" stopTime="0.00" timeLoss="27.05" rerouteNo="0" devices="tripinfo_westEastBottom0.13 ssm_westEastBottom0.13" vType="carCustom" speedFactor="1.05" vaporized=""/>
    <tripinfo id="westEastTop.15" depart="60.00" departLane="westJunction_1" departPos="5.10" departSpeed="3.11" departDelay="3.74" arrival="180.00" arrivalLane="junctionEast_1" arrivalPos="492.80" arrivalSpeed="21.15" duration="120.00" routeLength="994.90" waitingTime="0.00" waitingCount="0" stopTime="0.00" timeLoss="74.94" rerouteNo="0" devices="tripinfo_westEastTop.15 ssm_westEastTop.15" vType="carCustom" speedFactor="0.99" vaporized=""/>
    <tripinfo id="southEast.7" depart="100.00" departLane="southJunction_0" departPos="5.10" departSpeed="17.32" departDelay="0.78" arrival="180.00" arrivalLane="junctionEast_0" arrivalPos="492.80" arrivalSpeed="21.86" duration="80.00" routeLength="989.53" waitingTime="0.00" waitingCount="0" stopTime="0.00" timeLoss="34.15" rerouteNo="0" devices="tripinfo_southEast.7 ssm_southEast.7" vType="carCustom" speedFactor="0.96" vaporized=""/>
    <tripinfo id="southNorth.5" depart="76.00" departLane="southJunction_1" departPos="5.10" departSpeed="17.06" departDelay="2.63" arrival="183.00" arrivalLane="junctionNorth_0" arrivalPos="492.80" arrivalSpeed="21.77" duration="107.00" routeLength="995.01" waitingTime="14.00" waitingCount="4" stopTime="0.00" timeLoss="61.28" rerouteNo="0" devices="tripinfo_southNorth.5 ssm_southNorth.5" vType="carCustom" speedFactor="1.06" vaporized=""/>
    <tripinfo id="westEastTop.16" depart="65.00" departLane="westJunction_1" departPos="5.10" departSpeed="2.81" departDelay="3.60" arrival="187.00" arrivalLane="junctionEast_1" arrivalPos="492.80" arrivalSpeed="20.96" duration="122.00" routeLength="994.90" waitingTime="1.00" waitingCount="1" stopTime="0.00" timeLoss="76.32" rerouteNo="0" devices="tripinfo_westEastTop.16 ssm_westEastTop.16" vType="carCustom" speedFactor="1.07" vaporized=""/>
    <tripinfo id="westEastBottom0.14" depart="109.00" departLane="westJunction_0" departPos="5.10" departSpeed="11.32" departDelay="0.79" arrival="187.00" arrivalLane="junctionEast_0" arrivalPos="492.80" arrivalSpeed="21.25" duration="78.00" routeLength="994.90" waitingTime="0.00" waitingCount="0" stopTime="0.00" timeLoss="32.46" rerouteNo="0" devices="tripinfo_westEastBottom0.14 ssm_westEastBottom0.14" vType="carCustom" speedFactor="0.89" vaporized=""/>
    <tripinfo id="westEastBottom0.19" depart="150.00" departLane="westJunction_0" departPos="5.10" departSpeed="12.59" departDelay="0.65" arrival="190.00" arrivalLane="junctionEast_0" arrivalPos="492.80" arrivalSpeed="8.07" duration="40.00" routeLength="994.90" waitingTime="0.00" waitingCount="0" stopTime="0.00" timeLoss="17.36" rerouteNo="0" devices="tripinfo_westEastBottom0.19 ssm_westEastBottom0.19" vType="carCustom" speedFactor="1.18" vaporized="teleport"/>
    <tripinfo id="southNorth.6" depart="86.00" departLane="southJunction_1" departPos="5.10" departSpeed="11.74" departDelay="0.67" arrival="192.00" arrivalLane="junctionNorth_0" arrivalPos="492.80" arrivalSpeed="21.68" duration="106.00" routeLength="995.01" waitingTime="10.00" waitingCount="3" stopTime="0.00" timeLoss="60.80" rerouteNo="0" devices="tripinfo_southNorth.6 ssm_southNorth.6" vType="carCustom" speedFactor="0.94" vaporized=""/>
    <tripinfo id="westEastTop.17" depart="70.00" departLane="westJunction_1" departPos="5.10" departSpeed="4.06" departDelay="3.58" arrival="193.00" arrivalLane="junctionEast_1" arrivalPos="492.80" arrivalSpeed="21.24" duration="123.00" routeLength="994.90" waitingTime="4.00" waitingCount="1" stopTime="0.00" timeLoss="78.00" rerouteNo="0" devices="tripinfo_westEastTop.17 ssm_westEastTop.17" vType="carCustom" speedFactor="1.22" vaporized=""/>
    <tripinfo id="southEast.9" depart="115.00" departLane="southJunction_0" departPos="5.10" departSpeed="12.37" departDelay="0.03" arrival="193.00" arrivalLane="junctionEast_0" arrivalPos="492.80" arrivalSpeed="21.28" duration="78.00" routeLength="989.53" waitingTime="0.00" waitingCount="0" stopTime="0.00" timeLoss="32.50" rerouteNo="0" devices="tripinfo_southEast.9 ssm_southEast.9" vType="carCustom" speedFactor="1.13" vaporized=""/>
    <tripinfo id="westEastBottom0.15" depart="126.00" departLane="westJunction_0" departPos="5.10" departSpeed="13.49" departDelay="0.43" arrival="199.00" arrivalLane="junctionEast_0" arrivalPos="492.80" arrivalSpeed="21.43" duration="73.00" routeLength="994.90" waitingTime="0.00" waitingCount="0" stopTime="0.00" timeLoss="27.99" rerouteNo="0" devices="tripinfo_westEastBottom0.15 ssm_westEastBottom0.15" vType="carCustom" speedFactor="1.08" vaporized=""/>
    <tripinfo id="westEastTop.18" depart="74.00" departLane="westJunction_1" departPos="5.10" departSpeed="3.52" departDelay="3.82" arrival="200.00" arrivalLane="junctionEast_1" arrivalPos="492.80" arrivalSpeed="21.92" duration="126.00" routeLength="994.90" waitingTime="0.00" waitingCount="0" stopTime="0.00" timeLoss="80.57" rerouteNo="0" devices="tripinfo_westEastTop.18 ssm_westEastTop.18" vType="carCustom" speedFactor="0.83" vaporized=""/>
    <tripinfo id="southNorth.7" depart="88.00" departLane="southJunction_1" departPos="5.10" departSpeed="14.85" departDelay="1.21" arrival="202.00" arrivalLane="junctionNorth_0" arrivalPos="492.80" arrivalSpeed="22.07" duration="114.00" routeLength="995.01" waitingTime="11.00" waitingCount="4" stopTime="0.00" timeLoss="68.64" rerouteNo="0" devices="tripinfo_southNorth.7 ssm_southNorth.7" vType="carCustom" speedFactor="0.85" vaporized=""/>
    <tripinfo id="southEast.10" depart="129.00" departLane="southJunction_0" departPos="5.10" departSpeed="13.13" departDelay="0.71" arrival="205.00" arrivalLane="junctionEast_0" arrivalPos="492.80" arrivalSpeed="21.89" duration="76.00" routeLength="989.53" waitingTime="0.00" waitingCount="0" stopTime="0.00" timeLoss="30.12" rerouteNo="0" devices="tripinfo_southEast.10 ssm_southEast.10" vType="carCustom" speedFactor="1.17" vaporized=""/>
    <tripinfo id="westEastTop.19" depart="79.00" departLane="westJunction_1" departPos="5.10" departSpeed="3.49" departDelay="5.81" arrival="206.00" arrivalLane="junctionEast_1" arrivalPos="492.80" arrivalSpeed="21.51" duration="127.00" routeLength="994.90" waitingTime="1.00" waitingCount="1" stopTime="0.00" timeLoss="82.18" rerouteNo="0" devices="tripinfo_westEastTop.19 ssm_westEastTop.19" vType="carCustom" speedFactor="0.85" vaporized=""/>
    <tripinfo id="southNorth.8" depart="90.00" departLane="southJunction_1" departPos="5.10" departSpeed="10.84" departDelay="1.08" arrival="210.00" arrivalLane="junctionNorth_0" arrivalPos="492.80" arrivalSpeed="21.49" duration="120.00" routeLength="995.01" waitingTime="3.00" waitingCount="1" stopTime="0.00" timeLoss="74.27" rerouteNo="0" devices="tripinfo_southNorth.8 ssm_southNorth.8" vType="carCustom" speedFactor="0.92" vaporized=""/>
    <tripinfo id="westEastBottom0.17" depart="141.00" departLane="westJunction_0" departPos="5.10" departSpeed="17.65" departDelay="0.10" arrival="211.00" arrivalLane="junctionEast_0" arrivalPos="492.80" arrivalSpeed="21.92" duration="70.00" routeLength="994.90" waitingTime="0.00" waitingCount="0" stopTime="0.00" timeLoss="24.98" rerouteNo="0" devices="tripinfo_westEastBottom0.17 ssm_westEastBottom0.17" vType="carCustom" speedFactor="0.98" vaporized=""/>
    <tripinfo id="southEast.11" depart="133.00" departLane="southJunction_0" departPos="5.10" departSpeed="17.66" departDelay="0.79" arrival="213.00" arrivalLane="junctionEast_1" arrivalPos="492.80" arrivalSpeed="21.03" duration="80.00" routeLength="989.53" waitingTime="0.00" waitingCount="0" stopTime="0.00" timeLoss="34.05" rerouteNo="0" devices="tripinfo_southEast.11 ssm_southEast.11" vType="carCustom" speedFactor="0.96" vaporized=""/>
    <tripinfo id="westEastBottom0.18" depart="144.00" departLane="westJunction_0" departPos="5.10" departSpeed="17.96" departDelay="0.85" arrival="217.00" arrivalLane="junctionEast_0" arrivalPos="492.80" arrivalSpeed="22.02" duration="73.00" routeLength="994.90" waitingTime="0.00" waitingCount="0" stopTime="0.00" timeLoss="28.21" rerouteNo="0" devices="tripinfo_westEastBottom0.18 ssm_westEastBottom0.18" vType="carCustom" speedFactor="0.85" vaporized=""/>
    <tripinfo id="westEastTop.20" depart="83.00" departLane="westJunction_1" departPos="5.10" departSpeed="3.04" departDelay="9.03" arrival="219.00" arrivalLane="junctionEast_1" arrivalPos="492.80" arrivalSpeed="22.19" duration="136.00" routeLength="994.90" waitingTime="4.00" waitingCount="1" stopTime="0.00" timeLoss="90.75" rerouteNo="0" devices="tripinfo_westEastTop.20 ssm_westEastTop.20" vType="carCustom" speedFactor="1.04" vaporized=""/>
    <tripinfo id="westEastBottom0.22" depart="172.00" departLane="westJunction_0" departPos="5.10" departSpeed="10.95" departDelay="0.46" arrival="219.00" arrivalLane="junctionEast_0" arrivalPos="492.80" arrivalSpeed="3.02" duration="47.00" routeLength="994.90" waitingTime="0.00" waitingCount="0" stopTime="0.00" timeLoss="24.32" rerouteNo="0" devices="tripinfo_westEastBottom0.22 ssm_westEastBottom0.22" vType="carCustom" speedFactor="1.00" vaporized="teleport"/>
    <tripinfo id="southNorth.9" depart="99.00" departLane="southJunction_1" departPos="5.10" departSpeed="7.82" departDelay="0.28" arrival="220.00" arrivalLane="junctionNorth_0" arrivalPos="492.80" arrivalSpeed="21.46" duration="121.00" routeLength="995.01" waitingTime="9.00" waitingCount="1" stopTime="0.00" timeLoss="76.16" rerouteNo="0" devices="tripinfo_southNorth.9 ssm_southNorth.9" vType="carCustom" speedFactor="1.06" vaporized=""/>