<?xml version="1.0" encoding="UTF-8"?>

<!-- generated on 2025-04-29 07:35:31 by Eclipse SUMO sumo Version 1.20.0
<configuration xmlns:xsi="http://www.w3.org/2001/XMLSchema-instance" xsi:noNamespaceSchemaLocation="http://sumo.dlr.de/xsd/sumoConfiguration.xsd">

    <input>
        <net-file value="nets/2lane_unprotected_right/2lane_unprotected_right.net.xml"/>
        <route-files value="nets/2lane_unprotected_right/2lane_unprotected_right.rou.xml"/>
    </input>

    <output>
        <tripinfo-output value="traces/transs50f1_s50_f0.5_random/0115_tripinfo.xml"/>
        <collision-output value="traces/transs50f1_s50_f0.5_random/0115_collisions.xml"/>
        <statistic-output value="traces/transs50f1_s50_f0.5_random/0115_statistics.xml"/>
    </output>

    <processing>
        <collision.action value="teleport"/>
        <collision.check-junctions value="true"/>
        <time-to-teleport value="-1"/>
        <waiting-time-memory value="1000"/>
        <max-depart-delay value="-1"/>
        <default.speeddev value="0.1"/>
    </processing>

    <report>
        <no-warnings value="true"/>
    </report>

    <ssm_device>
        <device.ssm.probability value="1.0"/>
        <device.ssm.measures value="BR"/>
        <device.ssm.file value="/Users/finn/Code/CausalKnowledgeTransfer-4-SafeRL/traces/transs50f1_s50_f0.5_random/0115_ssm.xml"/>
    </ssm_device>

    <traci_server>
        <remote-port value="63833"/>
    </traci_server>

    <random_number>
        <random value="true"/>
    </random_number>

</configuration>
-->

<tripinfos xmlns:xsi="http://www.w3.org/2001/XMLSchema-instance" xsi:noNamespaceSchemaLocation="http://sumo.dlr.de/xsd/tripinfo_file.xsd">
    <tripinfo id="southNorth.0" depart="1.00" departLane="southJunction_1" departPos="5.10" departSpeed="27.78" departDelay="0.77" arrival="50.00" arrivalLane="junctionNorth_0" arrivalPos="492.80" arrivalSpeed="27.48" duration="49.00" routeLength="995.01" waitingTime="0.00" waitingCount="0" stopTime="0.00" timeLoss="12.84" rerouteNo="0" devices="tripinfo_southNorth.0 ssm_southNorth.0" vType="carCustom" speedFactor="0.99" vaporized=""/>
    <tripinfo id="westEastBottom0.0" depart="8.00" departLane="westJunction_0" departPos="5.10" departSpeed="27.78" departDelay="0.38" arrival="56.00" arrivalLane="junctionEast_0" arrivalPos="492.80" arrivalSpeed="26.61" duration="48.00" routeLength="994.90" waitingTime="5.00" waitingCount="1" stopTime="0.00" timeLoss="11.40" rerouteNo="0" devices="tripinfo_westEastBottom0.0 ssm_westEastBottom0.0" vType="carCustom" speedFactor="0.91" vaporized=""/>
    <tripinfo id="westEastTop.0" depart="9.00" departLane="westJunction_1" departPos="5.10" departSpeed="27.78" departDelay="0.93" arrival="56.00" arrivalLane="junctionEast_1" arrivalPos="492.80" arrivalSpeed="27.37" duration="47.00" routeLength="994.90" waitingTime="3.00" waitingCount="1" stopTime="0.00" timeLoss="10.24" rerouteNo="0" devices="tripinfo_westEastTop.0 ssm_westEastTop.0" vType="carCustom" speedFactor="0.83" vaporized=""/>
    <tripinfo id="southNorth.1" depart="3.00" departLane="southJunction_1" departPos="5.10" departSpeed="26.51" departDelay="1.63" arrival="64.00" arrivalLane="junctionNorth_0" arrivalPos="492.80" arrivalSpeed="27.13" duration="61.00" routeLength="995.01" waitingTime="2.00" waitingCount="1" stopTime="0.00" timeLoss="24.60" rerouteNo="0" devices="tripinfo_southNorth.1 ssm_southNorth.1" vType="carCustom" speedFactor="0.86" vaporized=""/>
    <tripinfo id="southEast.0" depart="11.00" departLane="southJunction_0" departPos="5.10" departSpeed="27.78" departDelay="0.98" arrival="65.00" arrivalLane="junctionEast_0" arrivalPos="492.80" arrivalSpeed="27.52" duration="54.00" routeLength="989.53" waitingTime="0.00" waitingCount="0" stopTime="0.00" timeLoss="16.00" rerouteNo="0" devices="tripinfo_southEast.0 ssm_southEast.0" vType="carCustom" speedFactor="0.95" vaporized=""/>
    <tripinfo id="westEastBottom0.1" depart="10.00" departLane="westJunction_0" departPos="5.10" departSpeed="26.51" departDelay="2.32" arrival="69.00" arrivalLane="junctionEast_1" arrivalPos="492.80" arrivalSpeed="27.37" duration="59.00" routeLength="994.90" waitingTime="1.00" waitingCount="1" stopTime="0.00" timeLoss="22.61" rerouteNo="0" devices="tripinfo_westEastBottom0.1 ssm_westEastBottom0.1" vType="carCustom" speedFactor="0.88" vaporized=""/>
    <tripinfo id="westEastTop.1" depart="11.00" departLane="westJunction_1" departPos="5.10" departSpeed="26.51" departDelay="1.44" arrival="76.00" arrivalLane="junctionEast_1" arrivalPos="492.80" arrivalSpeed="26.86" duration="65.00" routeLength="994.90" waitingTime="0.00" waitingCount="0" stopTime="0.00" timeLoss="29.19" rerouteNo="0" devices="tripinfo_westEastTop.1 ssm_westEastTop.1" vType="carCustom" speedFactor="0.99" vaporized=""/>
    <tripinfo id="southEast.1" depart="13.00" departLane="southJunction_0" departPos="5.10" departSpeed="26.29" departDelay="2.68" arrival="76.00" arrivalLane="junctionEast_0" arrivalPos="492.80" arrivalSpeed="27.00" duration="63.00" routeLength="989.53" waitingTime="0.00" waitingCount="0" stopTime="0.00" timeLoss="25.29" rerouteNo="0" devices="tripinfo_southEast.1 ssm_southEast.1" vType="carCustom" speedFactor="0.84" vaporized=""/>
    <tripinfo id="southNorth.2" depart="14.00" departLane="southJunction_1" departPos="5.10" departSpeed="18.93" departDelay="0.28" arrival="82.00" arrivalLane="junctionNorth_0" arrivalPos="492.80" arrivalSpeed="26.51" duration="68.00" routeLength="995.01" waitingTime="8.00" waitingCount="1" stopTime="0.00" timeLoss="31.98" rerouteNo="0" devices="tripinfo_southNorth.2 ssm_southNorth.2" vType="carCustom" speedFactor="0.92" vaporized=""/>
    <tripinfo id="westEastBottom0.3" depart="23.00" departLane="westJunction_0" departPos="5.10" departSpeed="19.96" departDelay="1.78" arrival="83.00" arrivalLane="junctionEast_1" arrivalPos="492.80" arrivalSpeed="27.68" duration="60.00" routeLength="994.90" waitingTime="0.00" waitingCount="0" stopTime="0.00" timeLoss="23.76" rerouteNo="0" devices="tripinfo_westEastBottom0.3 ssm_westEastBottom0.3" vType="carCustom" speedFactor="0.91" vaporized=""/>
    <tripinfo id="southEast.2" depart="15.00" departLane="southJunction_0" departPos="5.10" departSpeed="22.26" departDelay="0.75" arrival="85.00" arrivalLane="junctionEast_0" arrivalPos="492.80" arrivalSpeed="27.74" duration="70.00" routeLength="989.53" waitingTime="0.00" waitingCount="0" stopTime="0.00" timeLoss="32.75" rerouteNo="0" devices="tripinfo_southEast.2 ssm_southEast.2" vType="carCustom" speedFactor="0.96" vaporized=""/>
    <tripinfo id="southEast.5" depart="53.00" departLane="southJunction_0" departPos="5.10" departSpeed="14.11" departDelay="0.72" arrival="89.00" arrivalLane="junctionEast_0" arrivalPos="492.80" arrivalSpeed="4.30" duration="36.00" routeLength="989.53" waitingTime="0.00" waitingCount="0" stopTime="0.00" timeLoss="16.59" rerouteNo="0" devices="tripinfo_southEast.5 ssm_southEast.5" vType="carCustom" speedFactor="0.85" vaporized="teleport"/>
    <tripinfo id="westEastTop.2" depart="13.00" departLane="westJunction_1" departPos="5.10" departSpeed="22.48" departDelay="1.52" arrival="90.00" arrivalLane="junctionEast_1" arrivalPos="492.80" arrivalSpeed="27.64" duration="77.00" routeLength="994.90" waitingTime="0.00" waitingCount="0" stopTime="0.00" timeLoss="40.30" rerouteNo="0" devices="tripinfo_westEastTop.2 ssm_westEastTop.2" vType="carCustom" speedFactor="0.88" vaporized=""/>
    <tripinfo id="westEastBottom0.4" depart="25.00" departLane="westJunction_0" departPos="5.10" departSpeed="20.38" departDelay="1.82" arrival="91.00" arrivalLane="junctionEast_0" arrivalPos="492.80" arrivalSpeed="27.59" duration="66.00" routeLength="994.90" waitingTime="0.00" waitingCount="0" stopTime="0.00" timeLoss="30.14" rerouteNo="0" devices="tripinfo_westEastBottom0.4 ssm_westEastBottom0.4" vType="carCustom" speedFactor="0.80" vaporized=""/>
    <tripinfo id="westEastBottom0.2" depart="21.00" departLane="westJunction_0" departPos="5.10" departSpeed="19.31" departDelay="0.30" arrival="96.00" arrivalLane="junctionEast_1" arrivalPos="492.80" arrivalSpeed="26.56" duration="75.00" routeLength="994.90" waitingTime="0.00" waitingCount="0" stopTime="0.00" timeLoss="38.66" rerouteNo="0" devices="tripinfo_westEastBottom0.2 ssm_westEastBottom0.2" vType="carCustom" speedFactor="0.94" vaporized=""/>
    <tripinfo id="southEast.3" depart="26.00" departLane="southJunction_0" departPos="5.10" departSpeed="11.78" departDelay="0.95" arrival="98.00" arrivalLane="junctionEast_0" arrivalPos="492.80" arrivalSpeed="27.23" duration="72.00" routeLength="989.53" waitingTime="0.00" waitingCount="0" stopTime="0.00" timeLoss="35.42" rerouteNo="0" devices="tripinfo_southEast.3 ssm_southEast.3" vType="carCustom" speedFactor="1.03" vaporized=""/>
    <tripinfo id="westEastBottom0.5" depart="33.00" departLane="westJunction_0" departPos="5.10" departSpeed="12.27" departDelay="0.49" arrival="102.00" arrivalLane="junctionEast_1" arrivalPos="492.80" arrivalSpeed="27.05" duration="69.00" routeLength="994.90" waitingTime="0.00" waitingCount="0" stopTime="0.00" timeLoss="32.84" rerouteNo="0" devices="tripinfo_westEastBottom0.5 ssm_westEastBottom0.5" vType="carCustom" speedFactor="0.95" vaporized=""/>
    <tripinfo id="westEastBottom0.6" depart="34.00" departLane="westJunction_0" departPos="5.10" departSpeed="11.96" departDelay="0.67" arrival="105.00" arrivalLane="junctionEast_0" arrivalPos="492.80" arrivalSpeed="26.66" duration="71.00" routeLength="994.90" waitingTime="0.00" waitingCount="0" stopTime="0.00" timeLoss="34.38" rerouteNo="0" devices="tripinfo_westEastBottom0.6 ssm_westEastBottom0.6" vType="carCustom" speedFactor="0.98" vaporized=""/>
    <tripinfo id="southNorth.3" depart="28.00" departLane="southJunction_1" departPos="5.10" departSpeed="17.31" departDelay="0.40" arrival="107.00" arrivalLane="junctionNorth_0" arrivalPos="492.80" arrivalSpeed="27.34" duration="79.00" routeLength="995.01" waitingTime="18.00" waitingCount="1" stopTime="0.00" timeLoss="42.57" rerouteNo="0" devices="tripinfo_southNorth.3 ssm_southNorth.3" vType="carCustom" speedFactor="1.00" vaporized=""/>
    <tripinfo id="westEastTop.3" depart="37.00" departLane="westJunction_1" departPos="5.10" departSpeed="18.08" departDelay="0.48" arrival="108.00" arrivalLane="junctionEast_1" arrivalPos="492.80" arrivalSpeed="26.52" duration="71.00" routeLength="994.90" waitingTime="0.00" waitingCount="0" stopTime="0.00" timeLoss="35.16" rerouteNo="0" devices="tripinfo_westEastTop.3 ssm_westEastTop.3" vType="carCustom" speedFactor="0.95" vaporized=""/>
    <tripinfo id="southEast.4" depart="35.00" departLane="southJunction_0" departPos="5.10" departSpeed="15.06" departDelay="0.96" arrival="111.00" arrivalLane="junctionEast_0" arrivalPos="492.80" arrivalSpeed="27.13" duration="76.00" routeLength="989.53" waitingTime="1.00" waitingCount="1" stopTime="0.00" timeLoss="38.74" rerouteNo="0" devices="tripinfo_southEast.4 ssm_southEast.4" vType="carCustom" speedFactor="0.94" vaporized=""/>
    <tripinfo id="westEastBottom0.7" depart="46.00" departLane="westJunction_0" departPos="5.10" departSpeed="14.31" departDelay="0.51" arrival="116.00" arrivalLane="junctionEast_1" arrivalPos="492.80" arrivalSpeed="26.65" duration="70.00" routeLength="994.90" waitingTime="4.00" waitingCount="1" stopTime="0.00" timeLoss="33.17" rerouteNo="0" devices="tripinfo_westEastBottom0.7 ssm_westEastBottom0.7" vType="carCustom" speedFactor="0.83" vaporized=""/>
    <tripinfo id="westEastBottom0.8" depart="55.00" departLane="westJunction_0" departPos="5.10" departSpeed="17.59" departDelay="0.08" arrival="117.00" arrivalLane="junctionEast_0" arrivalPos="492.80" arrivalSpeed="27.20" duration="62.00" routeLength="994.90" waitingTime="0.00" waitingCount="0" stopTime="0.00" timeLoss="26.18" rerouteNo="0" devices="tripinfo_westEastBottom0.8 ssm_westEastBottom0.8" vType="carCustom" speedFactor="1.03" vaporized=""/>
    <tripinfo id="southNorth.4" depart="43.00" departLane="southJunction_1" departPos="5.10" departSpeed="17.39" departDelay="0.93" arrival="119.00" arrivalLane="junctionNorth_0" arrivalPos="492.80" arrivalSpeed="27.51" duration="76.00" routeLength="995.01" waitingTime="10.00" waitingCount="2" stopTime="0.00" timeLoss="39.50" rerouteNo="0" devices="tripinfo_southNorth.4 ssm_southNorth.4" vType="carCustom" speedFactor="0.99" vaporized=""/>
    <tripinfo id="westEastTop.4" depart="43.00" departLane="westJunction_1" departPos="5.10" departSpeed="12.83" departDelay="0.42" arrival="122.00" arrivalLane="junctionEast_1" arrivalPos="492.80" arrivalSpeed="26.58" duration="79.00" routeLength="994.90" waitingTime="0.00" waitingCount="0" stopTime="0.00" timeLoss="43.18" rerouteNo="0" devices="tripinfo_westEastTop.4 ssm_westEastTop.4" vType="carCustom" speedFactor="0.90" vaporized=""/>
    <tripinfo id="southEast.6" depart="66.00" departLane="southJunction_0" departPos="5.10" departSpeed="17.24" departDelay="0.81" arrival="124.00" arrivalLane="junctionEast_0" arrivalPos="492.80" arrivalSpeed="27.16" duration="58.00" routeLength="989.53" waitingTime="0.00" waitingCount="0" stopTime="0.00" timeLoss="21.60" rerouteNo="0" devices="tripinfo_southEast.6 ssm_southEast.6" vType="carCustom" speedFactor="1.11" vaporized=""/>
    <tripinfo id="southNorth.5" depart="48.00" departLane="southJunction_1" departPos="5.10" departSpeed="22.60" departDelay="0.76" arrival="129.00" arrivalLane="junctionNorth_0" arrivalPos="492.80" arrivalSpeed="27.74" duration="81.00" routeLength="995.01" waitingTime="8.00" waitingCount="2" stopTime="0.00" timeLoss="44.65" rerouteNo="0" devices="tripinfo_southNorth.5 ssm_southNorth.5" vType="carCustom" speedFactor="1.12" vaporized=""/>
    <tripinfo id="westEastTop.5" depart="52.00" departLane="westJunction_1" departPos="5.10" departSpeed="13.15" departDelay="0.71" arrival="129.00" arrivalLane="junctionEast_1" arrivalPos="492.80" arrivalSpeed="27.41" duration="77.00" routeLength="994.90" waitingTime="0.00" waitingCount="0" stopTime="0.00" timeLoss="40.74" rerouteNo="0" devices="tripinfo_westEastTop.5 ssm_westEastTop.5" vType="carCustom" speedFactor="1.24" vaporized=""/>
    <tripinfo id="westEastBottom0.9" depart="61.00" departLane="westJunction_0" departPos="5.10" departSpeed="17.97" departDelay="0.34" arrival="131.00" arrivalLane="junctionEast_0" arrivalPos="492.80" arrivalSpeed="26.66" duration="70.00" routeLength="994.90" waitingTime="4.00" waitingCount="1" stopTime="0.00" timeLoss="33.70" rerouteNo="0" devices="tripinfo_westEastBottom0.9 ssm_westEastBottom0.9" vType="carCustom" speedFactor="1.02" vaporized=""/>
    <tripinfo id="southNorth.6" depart="62.00" departLane="southJunction_1" departPos="5.10" departSpeed="16.46" departDelay="0.11" arrival="136.00" arrivalLane="junctionNorth_0" arrivalPos="492.80" arrivalSpeed="26.73" duration="74.00" routeLength="995.01" waitingTime="2.00" waitingCount="1" stopTime="0.00" timeLoss="37.94" rerouteNo="0" devices="tripinfo_southNorth.6 ssm_southNorth.6" vType="carCustom" speedFactor="1.10" vaporized=""/>
    <tripinfo id="westEastTop.6" depart="54.00" departLane="westJunction_1" departPos="5.10" departSpeed="14.38" departDelay="1.24" arrival="137.00" arrivalLane="junctionEast_1" arrivalPos="492.80" arrivalSpeed="26.49" duration="83.00" routeLength="994.90" waitingTime="2.00" waitingCount="1" stopTime="0.00" timeLoss="46.49" rerouteNo="0" devices="tripinfo_westEastTop.6 ssm_westEastTop.6" vType="carCustom" speedFactor="1.03" vaporized=""/>
    <tripinfo id="westEastBottom0.10" depart="70.00" departLane="westJunction_0" departPos="5.10" departSpeed="15.06" departDelay="0.09" arrival="138.00" arrivalLane="junctionEast_0" arrivalPos="492.80" arrivalSpeed="27.10" duration="68.00" routeLength="994.90" waitingTime="1.00" waitingCount="1" stopTime="0.00" timeLoss="31.87" rerouteNo="0" devices="tripinfo_westEastBottom0.10 ssm_westEastBottom0.10" vType="carCustom" speedFactor="1.03" vaporized=""/>
    <tripinfo id="westEastTop.7" depart="56.00" departLane="westJunction_1" departPos="5.10" departSpeed="10.42" departDelay="2.47" arrival="144.00" arrivalLane="junctionEast_1" arrivalPos="492.80" arrivalSpeed="26.77" duration="88.00" routeLength="994.90" waitingTime="0.00" waitingCount="0" stopTime="0.00" timeLoss="51.42" rerouteNo="0" devices="tripinfo_westEastTop.7 ssm_westEastTop.7" vType="carCustom" speedFactor="0.99" vaporized=""/>
    <tripinfo id="westEastBottom0.11" depart="84.00" departLane="westJunction_0" departPos="5.10" departSpeed="16.33" departDelay="0.41" arrival="145.00" arrivalLane="junctionEast_0" arrivalPos="492.80" arrivalSpeed="27.59" duration="61.00" routeLength="994.90" waitingTime="0.00" waitingCount="0" stopTime="0.00" timeLoss="24.90" rerouteNo="0" devices="tripinfo_westEastBottom0.11 ssm_westEastBottom0.11" vType="carCustom" speedFactor="1.11" vaporized=""/>
    <tripinfo id="westEastTop.8" depart="69.00" departLane="westJunction_1" departPos="5.10" departSpeed="8.46" departDelay="0.97" arrival="150.00" arrivalLane="junctionEast_1" arrivalPos="492.80" arrivalSpeed="26.70" duration="81.00" routeLength="994.90" waitingTime="0.00" waitingCount="0" stopTime="0.00" timeLoss="45.02" rerouteNo="0" devices="tripinfo_westEastTop.8 ssm_westEastTop.8" vType="carCustom" speedFactor="0.83" vaporized=""/>
    <tripinfo id="southEast.7" depart="87.00" departLane="southJunction_0" departPos="5.10" departSpeed="13.56" departDelay="0.85" arrival="152.00" arrivalLane="junctionEast_0" arrivalPos="492.80" arrivalSpeed="26.70" duration="65.00" routeLength="989.53" waitingTime="0.00" waitingCount="0" stopTime="0.00" timeLoss="26.39" rerouteNo="0" devices="tripinfo_southEast.7 ssm_southEast.7" vType="carCustom" speedFactor="0.86" vaporized=""/>
    <tripinfo id="southNorth.7" depart="74.00" departLane="southJunction_1" departPos="5.10" departSpeed="17.61" departDelay="0.45" arrival="154.00" arrivalLane="junctionNorth_0" arrivalPos="492.80" arrivalSpeed="27.23" duration="80.00" routeLength="995.01" waitingTime="17.00" waitingCount="1" stopTime="0.00" timeLoss="44.05" rerouteNo="0" devices="tripinfo_southNorth.7 ssm_southNorth.7" vType="carCustom" speedFactor="0.94" vaporized=""/>
    <tripinfo id="westEastTop.9" depart="80.00" departLane="westJunction_1" departPos="5.10" departSpeed="11.55" departDelay="0.42" arrival="157.00" arrivalLane="junctionEast_1" arrivalPos="492.80" arrivalSpeed="26.67" duration="77.00" routeLength="994.90" waitingTime="0.00" waitingCount="0" stopTime="0.00" timeLoss="40.49" rerouteNo="0" devices="tripinfo_westEastTop.9 ssm_westEastTop.9" vType="carCustom" speedFactor="0.79" vaporized=""/>
    <tripinfo id="westEastBottom0.12" depart="97.00" departLane="westJunction_0" departPos="5.10" departSpeed="15.81" departDelay="0.16" arrival="158.00" arrivalLane="junctionEast_0" arrivalPos="492.80" arrivalSpeed="27.45" duration="61.00" routeLength="994.90" waitingTime="0.00" waitingCount="0" stopTime="0.00" timeLoss="25.02" rerouteNo="0" devices="tripinfo_westEastBottom0.12 ssm_westEastBottom0.12" vType="carCustom" speedFactor="1.16" vaporized=""/>
    <tripinfo id="westEastTop.10" depart="84.00" departLane="westJunction_1" departPos="5.10" departSpeed="14.38" departDelay="0.84" arrival="164.00" arrivalLane="junctionEast_1" arrivalPos="492.80" arrivalSpeed="27.67" duration="80.00" routeLength="994.90" waitingTime="2.00" waitingCount="1" stopTime="0.00" timeLoss="43.66" rerouteNo="0" devices="tripinfo_westEastTop.10 ssm_westEastTop.10" vType="carCustom" speedFactor="1.10" vaporized=""/>
    <tripinfo id="southEast.8" depart="89.00" departLane="southJunction_0" departPos="5.10" departSpeed="16.68" departDelay="2.69" arrival="165.00" arrivalLane="junctionEast_0" arrivalPos="492.80" arrivalSpeed="26.78" duration="76.00" routeLength="989.53" waitingTime="0.00" waitingCount="0" stopTime="0.00" timeLoss="38.32" rerouteNo="0" devices="tripinfo_southEast.8 ssm_southEast.8" vType="carCustom" speedFactor="0.91" vaporized=""/>
    <tripinfo id="southNorth.8" depart="76.00" departLane="southJunction_1" departPos="5.10" departSpeed="21.34" departDelay="1.90" arrival="170.00" arrivalLane="junctionNorth_0" arrivalPos="492.80" arrivalSpeed="27.23" duration="94.00" routeLength="995.01" waitingTime="20.00" waitingCount="2" stopTime="0.00" timeLoss="57.47" rerouteNo="0" devices="tripinfo_southNorth.8 ssm_southNorth.8" vType="carCustom" speedFactor="1.01" vaporized=""/>
    <tripinfo id="westEastTop.11" depart="93.00" departLane="westJunction_1" departPos="5.10" departSpeed="11.92" departDelay="0.93" arrival="171.00" arrivalLane="junctionEast_1" arrivalPos="492.80" arrivalSpeed="26.51" duration="78.00" routeLength="994.90" waitingTime="0.00" waitingCount="0" stopTime="0.00" timeLoss="41.58" rerouteNo="0" devices="tripinfo_westEastTop.11 ssm_westEastTop.11" vType="carCustom" speedFactor="0.79" vaporized=""/>
    <tripinfo id="southEast.9" depart="94.00" departLane="southJunction_0" departPos="5.10" departSpeed="9.61" departDelay="0.77" arrival="171.00" arrivalLane="junctionEast_0" arrivalPos="492.80" arrivalSpeed="26.59" duration="77.00" routeLength="989.53" waitingTime="0.00" waitingCount="0" stopTime="0.00" timeLoss="39.47" rerouteNo="0" devices="tripinfo_southEast.9 ssm_southEast.9" vType="carCustom" speedFactor="0.94" vaporized=""/>
    <tripinfo id="southEast.10" depart="97.00" departLane="southJunction_0" departPos="5.10" departSpeed="10.27" departDelay="0.73" arrival="177.00" arrivalLane="junctionEast_0" arrivalPos="492.80" arrivalSpeed="26.75" duration="80.00" routeLength="989.53" waitingTime="0.00" waitingCount="0" stopTime="0.00" timeLoss="43.67" rerouteNo="0" devices="tripinfo_southEast.10 ssm_southEast.10" vType="carCustom" speedFactor="1.01" vaporized=""/>
    <tripinfo id="westEastTop.12" depart="97.00" departLane="westJunction_1" departPos="5.10" departSpeed="12.48" departDelay="0.60" arrival="178.00" arrivalLane="junctionEast_1" arrivalPos="492.80" arrivalSpeed="27.37" duration="81.00" routeLength="994.90" waitingTime="2.00" waitingCount="1" stopTime="0.00" timeLoss="44.95" rerouteNo="0" devices="tripinfo_westEastTop.12 ssm_westEastTop.12" vType="carCustom" speedFactor="1.10" vaporized=""/>
    <tripinfo id="westEastBottom0.13" depart="121.00" departLane="westJunction_0" departPos="5.10" departSpeed="15.19" departDelay="0.95" arrival="183.00" arrivalLane="junctionEast_0" arrivalPos="492.80" arrivalSpeed="27.56" duration="62.00" routeLength="994.90" waitingTime="0.00" waitingCount="0" stopTime="0.00" timeLoss="26.16" rerouteNo="0" devices="tripinfo_westEastBottom0.13 ssm_westEastBottom0.13" vType="carCustom" speedFactor="1.11" vaporized=""/>
    <tripinfo id="westEastTop.13" depart="99.00" departLane="westJunction_1" departPos="5.10" departSpeed="9.99" departDelay="1.77" arrival="185.00" arrivalLane="junctionEast_1" arrivalPos="492.80" arrivalSpeed="26.72" duration="86.00" routeLength="994.90" waitingTime="0.00" waitingCount="0" stopTime="0.00" timeLoss="49.76" rerouteNo="0" devices="tripinfo_westEastTop.13 ssm_westEastTop.13" vType="carCustom" speedFactor="0.97" vaporized=""/>
    <tripinfo id="southNorth.9" depart="82.00" departLane="southJunction_1" departPos="5.10" departSpeed="12.40" departDelay="0.81" arrival="186.00" arrivalLane="junctionNorth_0" arrivalPos="492.80" arrivalSpeed="26.75" duration="104.00" routeLength="995.01" waitingTime="24.00" waitingCount="3" stopTime="0.00" timeLoss="68.15" rerouteNo="0" devices="tripinfo_southNorth.9 ssm_southNorth.9" vType="carCustom" speedFactor="1.02" vaporized=""/>
    <tripinfo id="southEast.11" depart="116.00" departLane="southJunction_0" departPos="5.10" departSpeed="12.15" departDelay="0.79" arrival="190.00" arrivalLane="junctionEast_0" arrivalPos="492.80" arrivalSpeed="27.54" duration="74.00" routeLength="989.53" waitingTime="0.00" waitingCount="0" stopTime="0.00" timeLoss="36.01" rerouteNo="0" devices="tripinfo_southEast.11 ssm_southEast.11" vType="carCustom" speedFactor="0.86" vaporized=""/>
    <tripinfo id="westEastTop.14" depart="104.00" departLane="westJunction_1" departPos="5.10" departSpeed="7.31" departDelay="0.88" arrival="192.00" arrivalLane="junctionEast_1" arrivalPos="492.80" arrivalSpeed="27.46" duration="88.00" routeLength="994.90" waitingTime="0.00" waitingCount="0" stopTime="0.00" timeLoss="51.27" rerouteNo="0" devices="tripinfo_westEastTop.14 ssm_westEastTop.14" vType="carCustom" speedFactor="0.85" vaporized=""/>
    <tripinfo id="southEast.12" depart="126.00" departLane="southJunction_0" departPos="5.10" departSpeed="16.78" departDelay="0.90" arrival="196.00" arrivalLane="junctionEast_0" arrivalPos="492.80" arrivalSpeed="26.68" duration="70.00" routeLength="989.53" waitingTime="0.00" waitingCount="0" stopTime="0.00" timeLoss="32.87" rerouteNo="0" devices="tripinfo_southEast.12 ssm_southEast.12" vType="carCustom" speedFactor="1.08" vaporized=""/>
    <tripinfo id="westEastTop.15" depart="108.00" departLane="westJunction_1" departPos="5.10" departSpeed="6.77" departDelay="0.10" arrival="198.00" arrivalLane="junctionEast_1" arrivalPos="492.80" arrivalSpeed="26.95" duration="90.00" routeLength="994.90" waitingTime="0.00" waitingCount="0" stopTime="0.00" timeLoss="53.87" rerouteNo="0" devices="tripinfo_westEastTop.15 ssm_westEastTop.15" vType="carCustom" speedFactor="1.07" vaporized=""/>
    <tripinfo id="westEastBottom0.14" depart="137.00" departLane="westJunction_0" departPos="5.10" departSpeed="16.92" departDelay="0.93" arrival="202.00" arrivalLane="junctionEast_0" arrivalPos="492.80" arrivalSpeed="27.40" duration="65.00" routeLength="994.90" waitingTime="0.00" waitingCount="0" stopTime="0.00" timeLoss="28.75" rerouteNo="0" devices="tripinfo_westEastBottom0.14 ssm_westEastBottom0.14" vType="carCustom" speedFactor="0.89" vaporized=""/>
    <tripinfo id="southNorth.10" depart="87.00" departLane="southJunction_1" departPos="5.10" departSpeed="13.26" departDelay="0.18" arrival="203.00" arrivalLane="junctionNorth_0" arrivalPos="492.80" arrivalSpeed="27.49" duration="116.00" routeLength="995.01" waitingTime="26.00" waitingCount="3" stopTime="0.00" timeLoss="79.25" rerouteNo="0" devices="tripinfo_southNorth.10 ssm_southNorth.10" vType="carCustom" speedFactor="1.17" vaporized=""/>
    <tripinfo id="westEastTop.16" depart="111.00" departLane="westJunction_1" departPos="5.10" departSpeed="6.05" departDelay="2.01" arrival="204.00" arrivalLane="junctionEast_1" arrivalPos="492.80" arrivalSpeed="26.98" duration="93.00" routeLength="994.90" waitingTime="0.00" waitingCount="0" stopTime="0.00" timeLoss="57.10" rerouteNo="0" devices="tripinfo_westEastTop.16 ssm_westEastTop.16" vType="carCustom" speedFactor="0.89" vaporized=""/>
    <tripinfo id="southEast.13" depart="131.00" departLane="southJunction_0" departPos="5.10" departSpeed="17.61" departDelay="0.96" arrival="208.00" arrivalLane="junctionEast_0" arrivalPos="492.80" arrivalSpeed="26.63" duration="77.00" routeLength="989.53" waitingTime="0.00" waitingCount="0" stopTime="0.00" timeLoss="39.55" rerouteNo="0" devices="tripinfo_southEast.13 ssm_southEast.13" vType="carCustom" speedFactor="0.89" vaporized=""/>
    <tripinfo id="westEastTop.17" depart="114.00" departLane="westJunction_1" departPos="5.10" departSpeed="4.59" departDelay="1.01" arrival="211.00" arrivalLane="junctionEast_1" arrivalPos="492.80" arrivalSpeed="26.92" duration="97.00" routeLength="994.90" waitingTime="0.00" waitingCount="0" stopTime="0.00" timeLoss="60.29" rerouteNo="0" devices="tripinfo_westEastTop.17 ssm_westEastTop.17" vType="carCustom" speedFactor="0.97" vaporized=""/>
    <tripinfo id="southNorth.11" depart="89.00" departLane="southJunction_1" departPos="5.10" departSpeed="10.87" departDelay="1.52" arrival="214.00" arrivalLane="junctionNorth_0" arrivalPos="492.80" arrivalSpeed="27.69" duration="125.00" routeLength="995.01" waitingTime="25.00" waitingCount="4" stopTime="0.00" timeLoss="88.97" rerouteNo="0" devices="tripinfo_southNorth.11 ssm_southNorth.11" vType="carCustom" speedFactor="1.15" vaporized=""/>
    <tripinfo id="southEast.14" depart="140.00" departLane="southJunction_0" departPos="5.10" departSpeed="14.92" departDelay="0.03" arrival="214.00" arrivalLane="junctionEast_0" arrivalPos="492.80" arrivalSpeed="27.62" duration="74.00" routeLength="989.53" waitingTime="0.00" waitingCount="0" stopTime="0.00" timeLoss="36.61" rerouteNo="0" devices="tripinfo_southEast.14 ssm_southEast.14" vType="carCustom" speedFactor="1.13" vaporized=""/>
    <tripinfo id="westEastTop.18" depart="118.00" departLane="westJunction_1" departPos="5.10" departSpeed="3.79" departDelay="1.55" arrival="217.00" arrivalLane="junctionEast_1" arrivalPos="492.80" arrivalSpeed="26.59" duration="99.00" routeLength="994.90" waitingTime="0.00" waitingCount="0" stopTime="0.00" timeLoss="62.74" rerouteNo="0" devices="tripinfo_westEastTop.18 ssm_westEastTop.18" vType="carCustom" speedFactor="1.15" vaporized=""/>
    <tripinfo id="southEast.15" depart="146.00" departLane="southJunction_0" departPos="5.10" departSpeed="15.57" departDelay="0.86" arrival="220.00" arrivalLane="junctionEast_0" arrivalPos="492.80" arrivalSpeed="27.62" duration="74.00" routeLength="989.53" waitingTime="0.00" waitingCount="0" stopTime="0.00" timeLoss="37.31" rerouteNo="0" devices="tripinfo_southEast.15 ssm_southEast.15" vType="carCustom" speedFactor="1.05" vaporized=""/>
    <tripinfo id="southNorth.12" depart="91.00" departLane="southJunction_1" departPos="5.10" departSpeed="7.34" departDelay="1.82" arrival="222.00" arrivalLane="junctionNorth_0" arrivalPos="492.80" arrivalSpeed="27.48" duration="131.00" routeLength="995.01" waitingTime="17.00" waitingCount="3" stopTime="0.00" timeLoss="94.23" rerouteNo="0" devices="tripinfo_southNorth.12 ssm_southNorth.12" vType="carCustom" speedFactor="0.74" vaporized=""/>