<?xml version="1.0" encoding="UTF-8"?>

<!-- generated on 2025-04-29 07:42:53 by Eclipse SUMO sumo Version 1.20.0
<configuration xmlns:xsi="http://www.w3.org/2001/XMLSchema-instance" xsi:noNamespaceSchemaLocation="http://sumo.dlr.de/xsd/sumoConfiguration.xsd">

    <input>
        <net-file value="nets/2lane_unprotected_right/2lane_unprotected_right.net.xml"/>
        <route-files value="nets/2lane_unprotected_right/2lane_unprotected_right.rou.xml"/>
    </input>

    <output>
        <tripinfo-output value="traces/transs50f1_s50_f0.5_random/0121_tripinfo.xml"/>
        <collision-output value="traces/transs50f1_s50_f0.5_random/0121_collisions.xml"/>
        <statistic-output value="traces/transs50f1_s50_f0.5_random/0121_statistics.xml"/>
    </output>

    <processing>
        <collision.action value="teleport"/>
        <collision.check-junctions value="true"/>
        <time-to-teleport value="-1"/>
        <waiting-time-memory value="1000"/>
        <max-depart-delay value="-1"/>
        <default.speeddev value="0.1"/>
    </processing>

    <report>
        <no-warnings value="true"/>
    </report>

    <ssm_device>
        <device.ssm.probability value="1.0"/>
        <device.ssm.measures value="BR"/>
        <device.ssm.file value="/Users/finn/Code/CausalKnowledgeTransfer-4-SafeRL/traces/transs50f1_s50_f0.5_random/0121_ssm.xml"/>
    </ssm_device>

    <traci_server>
        <remote-port value="63908"/>
    </traci_server>

    <random_number>
        <random value="true"/>
    </random_number>

</configuration>
-->

<tripinfos xmlns:xsi="http://www.w3.org/2001/XMLSchema-instance" xsi:noNamespaceSchemaLocation="http://sumo.dlr.de/xsd/tripinfo_file.xsd">
    <tripinfo id="westEastTop.0" depart="4.00" departLane="westJunction_1" departPos="5.10" departSpeed="22.22" departDelay="0.03" arrival="51.00" arrivalLane="junctionEast_0" arrivalPos="492.80" arrivalSpeed="21.20" duration="47.00" routeLength="994.90" waitingTime="0.00" waitingCount="0" stopTime="0.00" timeLoss="1.30" rerouteNo="0" devices="tripinfo_westEastTop.0 ssm_westEastTop.0" vType="carCustom" speedFactor="0.97" vaporized=""/>
    <tripinfo id="westEastTop.1" depart="7.00" departLane="westJunction_1" departPos="5.10" departSpeed="21.63" departDelay="0.26" arrival="54.00" arrivalLane="junctionEast_0" arrivalPos="492.80" arrivalSpeed="21.46" duration="47.00" routeLength="994.90" waitingTime="0.00" waitingCount="0" stopTime="0.00" timeLoss="1.37" rerouteNo="0" devices="tripinfo_westEastTop.1 ssm_westEastTop.1" vType="carCustom" speedFactor="0.84" vaporized=""/>
    <tripinfo id="westEastBottom0.0" depart="15.00" departLane="westJunction_0" departPos="5.10" departSpeed="22.22" departDelay="0.86" arrival="61.00" arrivalLane="junctionEast_0" arrivalPos="492.80" arrivalSpeed="21.04" duration="46.00" routeLength="994.90" waitingTime="0.00" waitingCount="0" stopTime="0.00" timeLoss="1.22" rerouteNo="0" devices="tripinfo_westEastBottom0.0 ssm_westEastBottom0.0" vType="carCustom" speedFactor="0.98" vaporized=""/>
    <tripinfo id="westEastBottom0.1" depart="17.00" departLane="westJunction_0" departPos="5.10" departSpeed="22.05" departDelay="0.83" arrival="64.00" arrivalLane="junctionEast_0" arrivalPos="492.80" arrivalSpeed="21.01" duration="47.00" routeLength="994.90" waitingTime="0.00" waitingCount="0" stopTime="0.00" timeLoss="1.45" rerouteNo="0" devices="tripinfo_westEastBottom0.1 ssm_westEastBottom0.1" vType="carCustom" speedFactor="0.97" vaporized=""/>
    <tripinfo id="westEastTop.2" depart="18.00" departLane="westJunction_1" departPos="5.10" departSpeed="21.08" departDelay="0.16" arrival="65.00" arrivalLane="junctionEast_1" arrivalPos="492.80" arrivalSpeed="21.18" duration="47.00" routeLength="994.90" waitingTime="0.00" waitingCount="0" stopTime="0.00" timeLoss="1.38" rerouteNo="0" devices="tripinfo_westEastTop.2 ssm_westEastTop.2" vType="carCustom" speedFactor="0.94" vaporized=""/>
    <tripinfo id="westEastTop.3" depart="20.00" departLane="westJunction_1" departPos="5.10" departSpeed="21.44" departDelay="1.73" arrival="67.00" arrivalLane="junctionEast_0" arrivalPos="492.80" arrivalSpeed="21.18" duration="47.00" routeLength="994.90" waitingTime="0.00" waitingCount="0" stopTime="0.00" timeLoss="1.57" rerouteNo="0" devices="tripinfo_westEastTop.3 ssm_westEastTop.3" vType="carCustom" speedFactor="1.23" vaporized=""/>
    <tripinfo id="southNorth.0" depart="21.00" departLane="southJunction_1" departPos="5.10" departSpeed="22.22" departDelay="0.93" arrival="68.00" arrivalLane="junctionNorth_0" arrivalPos="492.80" arrivalSpeed="21.53" duration="47.00" routeLength="995.01" waitingTime="0.00" waitingCount="0" stopTime="0.00" timeLoss="2.22" rerouteNo="0" devices="tripinfo_southNorth.0 ssm_southNorth.0" vType="carCustom" speedFactor="0.75" vaporized=""/>
    <tripinfo id="southEast.0" depart="23.00" departLane="southJunction_0" departPos="5.10" departSpeed="22.22" departDelay="0.37" arrival="74.00" arrivalLane="junctionEast_0" arrivalPos="492.80" arrivalSpeed="21.72" duration="51.00" routeLength="989.53" waitingTime="0.00" waitingCount="0" stopTime="0.00" timeLoss="5.42" rerouteNo="0" devices="tripinfo_southEast.0 ssm_southEast.0" vType="carCustom" speedFactor="1.11" vaporized=""/>
    <tripinfo id="westEastTop.4" depart="22.00" departLane="westJunction_1" departPos="5.10" departSpeed="21.99" departDelay="1.38" arrival="76.00" arrivalLane="junctionEast_0" arrivalPos="492.80" arrivalSpeed="22.02" duration="54.00" routeLength="994.90" waitingTime="0.00" waitingCount="0" stopTime="0.00" timeLoss="9.20" rerouteNo="0" devices="tripinfo_westEastTop.4 ssm_westEastTop.4" vType="carCustom" speedFactor="1.01" vaporized=""/>
    <tripinfo id="westEastTop.5" depart="25.00" departLane="westJunction_1" departPos="5.10" departSpeed="20.98" departDelay="0.18" arrival="78.00" arrivalLane="junctionEast_0" arrivalPos="492.80" arrivalSpeed="21.23" duration="53.00" routeLength="994.90" waitingTime="0.00" waitingCount="0" stopTime="0.00" timeLoss="8.21" rerouteNo="0" devices="tripinfo_westEastTop.5 ssm_westEastTop.5" vType="carCustom" speedFactor="1.25" vaporized=""/>
    <tripinfo id="westEastBottom0.3" depart="30.00" departLane="westJunction_0" departPos="5.10" departSpeed="21.82" departDelay="1.21" arrival="80.00" arrivalLane="junctionEast_0" arrivalPos="492.80" arrivalSpeed="21.88" duration="50.00" routeLength="994.90" waitingTime="0.00" waitingCount="0" stopTime="0.00" timeLoss="5.00" rerouteNo="0" devices="tripinfo_westEastBottom0.3 ssm_westEastBottom0.3" vType="carCustom" speedFactor="0.96" vaporized=""/>
    <tripinfo id="westEastBottom0.2" depart="28.00" departLane="westJunction_0" departPos="5.10" departSpeed="21.60" departDelay="0.35" arrival="81.00" arrivalLane="junctionEast_1" arrivalPos="492.80" arrivalSpeed="22.03" duration="53.00" routeLength="994.90" waitingTime="0.00" waitingCount="0" stopTime="0.00" timeLoss="7.33" rerouteNo="0" devices="tripinfo_westEastBottom0.2 ssm_westEastBottom0.2" vType="carCustom" speedFactor="1.08" vaporized=""/>
    <tripinfo id="westEastTop.6" depart="37.00" departLane="westJunction_1" departPos="5.10" departSpeed="21.71" departDelay="0.54" arrival="84.00" arrivalLane="junctionEast_0" arrivalPos="492.80" arrivalSpeed="21.07" duration="47.00" routeLength="994.90" waitingTime="0.00" waitingCount="0" stopTime="0.00" timeLoss="1.49" rerouteNo="0" devices="tripinfo_westEastTop.6 ssm_westEastTop.6" vType="carCustom" speedFactor="0.91" vaporized=""/>
    <tripinfo id="westEastBottom0.4" depart="38.00" departLane="westJunction_0" departPos="5.10" departSpeed="21.77" departDelay="0.65" arrival="85.00" arrivalLane="junctionEast_0" arrivalPos="492.80" arrivalSpeed="20.98" duration="47.00" routeLength="994.90" waitingTime="0.00" waitingCount="0" stopTime="0.00" timeLoss="2.13" rerouteNo="0" devices="tripinfo_westEastBottom0.4 ssm_westEastBottom0.4" vType="carCustom" speedFactor="0.82" vaporized=""/>
    <tripinfo id="westEastBottom0.5" depart="40.00" departLane="westJunction_0" departPos="5.10" departSpeed="21.00" departDelay="1.44" arrival="87.00" arrivalLane="junctionEast_0" arrivalPos="492.80" arrivalSpeed="21.16" duration="47.00" routeLength="994.90" waitingTime="0.00" waitingCount="0" stopTime="0.00" timeLoss="2.08" rerouteNo="0" devices="tripinfo_westEastBottom0.5 ssm_westEastBottom0.5" vType="carCustom" speedFactor="1.00" vaporized=""/>
    <tripinfo id="westEastBottom0.6" depart="42.00" departLane="westJunction_0" departPos="5.10" departSpeed="21.97" departDelay="1.53" arrival="89.00" arrivalLane="junctionEast_0" arrivalPos="492.80" arrivalSpeed="21.51" duration="47.00" routeLength="994.90" waitingTime="0.00" waitingCount="0" stopTime="0.00" timeLoss="2.12" rerouteNo="0" devices="tripinfo_westEastBottom0.6 ssm_westEastBottom0.6" vType="carCustom" speedFactor="0.99" vaporized=""/>
    <tripinfo id="westEastTop.7" depart="43.00" departLane="westJunction_1" departPos="5.10" departSpeed="20.95" departDelay="0.26" arrival="89.00" arrivalLane="junctionEast_1" arrivalPos="492.80" arrivalSpeed="21.75" duration="46.00" routeLength="994.90" waitingTime="0.00" waitingCount="0" stopTime="0.00" timeLoss="1.11" rerouteNo="0" devices="tripinfo_westEastTop.7 ssm_westEastTop.7" vType="carCustom" speedFactor="0.95" vaporized=""/>
    <tripinfo id="westEastBottom0.7" depart="47.00" departLane="westJunction_0" departPos="5.10" departSpeed="20.60" departDelay="0.21" arrival="94.00" arrivalLane="junctionEast_0" arrivalPos="492.80" arrivalSpeed="21.59" duration="47.00" routeLength="994.90" waitingTime="0.00" waitingCount="0" stopTime="0.00" timeLoss="1.32" rerouteNo="0" devices="tripinfo_westEastBottom0.7 ssm_westEastBottom0.7" vType="carCustom" speedFactor="1.06" vaporized=""/>
    <tripinfo id="westEastTop.8" depart="48.00" departLane="westJunction_1" departPos="5.10" departSpeed="22.14" departDelay="0.93" arrival="95.00" arrivalLane="junctionEast_1" arrivalPos="492.80" arrivalSpeed="21.21" duration="47.00" routeLength="994.90" waitingTime="0.00" waitingCount="0" stopTime="0.00" timeLoss="1.36" rerouteNo="0" devices="tripinfo_westEastTop.8 ssm_westEastTop.8" vType="carCustom" speedFactor="0.99" vaporized=""/>
    <tripinfo id="southEast.1" depart="41.00" departLane="southJunction_0" departPos="5.10" departSpeed="21.85" departDelay="0.95" arrival="97.00" arrivalLane="junctionEast_0" arrivalPos="492.80" arrivalSpeed="21.87" duration="56.00" routeLength="989.53" waitingTime="0.00" waitingCount="0" stopTime="0.00" timeLoss="10.26" rerouteNo="0" devices="tripinfo_southEast.1 ssm_southEast.1" vType="carCustom" speedFactor="0.93" vaporized=""/>
    <tripinfo id="westEastBottom0.8" depart="49.00" departLane="westJunction_0" departPos="5.10" departSpeed="22.20" departDelay="0.91" arrival="97.00" arrivalLane="junctionEast_1" arrivalPos="492.80" arrivalSpeed="21.73" duration="48.00" routeLength="994.90" waitingTime="0.00" waitingCount="0" stopTime="0.00" timeLoss="2.42" rerouteNo="0" devices="tripinfo_westEastBottom0.8 ssm_westEastBottom0.8" vType="carCustom" speedFactor="1.13" vaporized=""/>
    <tripinfo id="westEastBottom0.9" depart="52.00" departLane="westJunction_0" departPos="5.10" departSpeed="22.01" departDelay="0.43" arrival="99.00" arrivalLane="junctionEast_1" arrivalPos="492.80" arrivalSpeed="20.98" duration="47.00" routeLength="994.90" waitingTime="0.00" waitingCount="0" stopTime="0.00" timeLoss="1.61" rerouteNo="0" devices="tripinfo_westEastBottom0.9 ssm_westEastBottom0.9" vType="carCustom" speedFactor="0.99" vaporized=""/>
    <tripinfo id="southEast.2" depart="45.00" departLane="southJunction_0" departPos="5.10" departSpeed="22.14" departDelay="0.07" arrival="100.00" arrivalLane="junctionEast_0" arrivalPos="492.80" arrivalSpeed="22.00" duration="55.00" routeLength="989.53" waitingTime="0.00" waitingCount="0" stopTime="0.00" timeLoss="8.81" rerouteNo="0" devices="tripinfo_southEast.2 ssm_southEast.2" vType="carCustom" speedFactor="1.03" vaporized=""/>
    <tripinfo id="westEastBottom0.10" depart="54.00" departLane="westJunction_0" departPos="5.10" departSpeed="22.10" departDelay="1.84" arrival="101.00" arrivalLane="junctionEast_1" arrivalPos="492.80" arrivalSpeed="21.58" duration="47.00" routeLength="994.90" waitingTime="0.00" waitingCount="0" stopTime="0.00" timeLoss="1.76" rerouteNo="0" devices="tripinfo_westEastBottom0.10 ssm_westEastBottom0.10" vType="carCustom" speedFactor="0.81" vaporized=""/>
    <tripinfo id="southEast.3" depart="53.00" departLane="southJunction_0" departPos="5.10" departSpeed="21.71" departDelay="0.61" arrival="108.00" arrivalLane="junctionEast_0" arrivalPos="492.80" arrivalSpeed="21.07" duration="55.00" routeLength="989.53" waitingTime="0.00" waitingCount="0" stopTime="0.00" timeLoss="9.55" rerouteNo="0" devices="tripinfo_southEast.3 ssm_southEast.3" vType="carCustom" speedFactor="1.09" vaporized=""/>
    <tripinfo id="westEastTop.9" depart="62.00" departLane="westJunction_1" departPos="5.10" departSpeed="21.22" departDelay="0.88" arrival="109.00" arrivalLane="junctionEast_1" arrivalPos="492.80" arrivalSpeed="21.29" duration="47.00" routeLength="994.90" waitingTime="0.00" waitingCount="0" stopTime="0.00" timeLoss="1.40" rerouteNo="0" devices="tripinfo_westEastTop.9 ssm_westEastTop.9" vType="carCustom" speedFactor="1.06" vaporized=""/>
    <tripinfo id="southEast.4" depart="56.00" departLane="southJunction_0" departPos="5.10" departSpeed="21.97" departDelay="0.30" arrival="111.00" arrivalLane="junctionEast_0" arrivalPos="492.80" arrivalSpeed="21.80" duration="55.00" routeLength="989.53" waitingTime="0.00" waitingCount="0" stopTime="0.00" timeLoss="8.41" rerouteNo="0" devices="tripinfo_southEast.4 ssm_southEast.4" vType="carCustom" speedFactor="1.07" vaporized=""/>
    <tripinfo id="westEastTop.10" depart="64.00" departLane="westJunction_1" departPos="5.10" departSpeed="22.01" departDelay="1.69" arrival="111.00" arrivalLane="junctionEast_1" arrivalPos="492.80" arrivalSpeed="21.78" duration="47.00" routeLength="994.90" waitingTime="0.00" waitingCount="0" stopTime="0.00" timeLoss="1.59" rerouteNo="0" devices="tripinfo_westEastTop.10 ssm_westEastTop.10" vType="carCustom" speedFactor="0.99" vaporized=""/>
    <tripinfo id="westEastBottom0.11" depart="64.00" departLane="westJunction_0" departPos="5.10" departSpeed="22.02" departDelay="0.08" arrival="113.00" arrivalLane="junctionEast_1" arrivalPos="492.80" arrivalSpeed="21.42" duration="49.00" routeLength="994.90" waitingTime="0.00" waitingCount="0" stopTime="0.00" timeLoss="3.62" rerouteNo="0" devices="tripinfo_westEastBottom0.11 ssm_westEastBottom0.11" vType="carCustom" speedFactor="0.90" vaporized=""/>
    <tripinfo id="westEastTop.11" depart="70.00" departLane="westJunction_1" departPos="5.10" departSpeed="21.86" departDelay="0.78" arrival="117.00" arrivalLane="junctionEast_0" arrivalPos="492.80" arrivalSpeed="21.49" duration="47.00" routeLength="994.90" waitingTime="0.00" waitingCount="0" stopTime="0.00" timeLoss="1.46" rerouteNo="0" devices="tripinfo_westEastTop.11 ssm_westEastTop.11" vType="carCustom" speedFactor="0.85" vaporized=""/>
    <tripinfo id="southEast.5" depart="61.00" departLane="southJunction_0" departPos="5.10" departSpeed="21.04" departDelay="0.14" arrival="118.00" arrivalLane="junctionEast_0" arrivalPos="492.80" arrivalSpeed="21.88" duration="57.00" routeLength="989.53" waitingTime="0.00" waitingCount="0" stopTime="0.00" timeLoss="11.88" rerouteNo="0" devices="tripinfo_southEast.5 ssm_southEast.5" vType="carCustom" speedFactor="1.03" vaporized=""/>
    <tripinfo id="southNorth.1" depart="69.00" departLane="southJunction_1" departPos="5.10" departSpeed="22.22" departDelay="0.11" arrival="121.00" arrivalLane="junctionNorth_0" arrivalPos="492.80" arrivalSpeed="21.72" duration="52.00" routeLength="995.01" waitingTime="0.00" waitingCount="0" stopTime="0.00" timeLoss="7.13" rerouteNo="0" devices="tripinfo_southNorth.1 ssm_southNorth.1" vType="carCustom" speedFactor="1.12" vaporized=""/>
    <tripinfo id="southEast.6" depart="69.00" departLane="southJunction_0" departPos="5.10" departSpeed="21.75" departDelay="0.74" arrival="122.00" arrivalLane="junctionEast_0" arrivalPos="492.80" arrivalSpeed="22.07" duration="53.00" routeLength="989.53" waitingTime="0.00" waitingCount="0" stopTime="0.00" timeLoss="6.39" rerouteNo="0" devices="tripinfo_southEast.6 ssm_southEast.6" vType="carCustom" speedFactor="0.98" vaporized=""/>
    <tripinfo id="southEast.7" depart="71.00" departLane="southJunction_0" departPos="5.10" departSpeed="21.84" departDelay="0.09" arrival="125.00" arrivalLane="junctionEast_0" arrivalPos="492.80" arrivalSpeed="22.09" duration="54.00" routeLength="989.53" waitingTime="0.00" waitingCount="0" stopTime="0.00" timeLoss="7.31" rerouteNo="0" devices="tripinfo_southEast.7 ssm_southEast.7" vType="carCustom" speedFactor="0.93" vaporized=""/>
    <tripinfo id="westEastTop.12" depart="72.00" departLane="westJunction_1" departPos="5.10" departSpeed="22.02" departDelay="0.79" arrival="129.00" arrivalLane="junctionEast_0" arrivalPos="492.80" arrivalSpeed="21.73" duration="57.00" routeLength="994.90" waitingTime="4.00" waitingCount="1" stopTime="0.00" timeLoss="11.02" rerouteNo="0" devices="tripinfo_westEastTop.12 ssm_westEastTop.12" vType="carCustom" speedFactor="0.98" vaporized=""/>
    <tripinfo id="westEastTop.13" depart="86.00" departLane="westJunction_1" departPos="5.10" departSpeed="21.39" departDelay="0.64" arrival="133.00" arrivalLane="junctionEast_1" arrivalPos="492.80" arrivalSpeed="21.58" duration="47.00" routeLength="994.90" waitingTime="0.00" waitingCount="0" stopTime="0.00" timeLoss="1.49" rerouteNo="0" devices="tripinfo_westEastTop.13 ssm_westEastTop.13" vType="carCustom" speedFactor="0.87" vaporized=""/>
    <tripinfo id="westEastBottom0.12" depart="86.00" departLane="westJunction_0" departPos="5.10" departSpeed="17.01" departDelay="0.13" arrival="133.00" arrivalLane="junctionEast_0" arrivalPos="492.80" arrivalSpeed="20.94" duration="47.00" routeLength="994.90" waitingTime="0.00" waitingCount="0" stopTime="0.00" timeLoss="1.92" rerouteNo="0" devices="tripinfo_westEastBottom0.12 ssm_westEastBottom0.12" vType="carCustom" speedFactor="1.08" vaporized=""/>
    <tripinfo id="southNorth.2" depart="88.00" departLane="southJunction_1" departPos="5.10" departSpeed="21.07" departDelay="0.98" arrival="136.00" arrivalLane="junctionNorth_0" arrivalPos="492.80" arrivalSpeed="21.02" duration="48.00" routeLength="995.01" waitingTime="0.00" waitingCount="0" stopTime="0.00" timeLoss="2.49" rerouteNo="0" devices="tripinfo_southNorth.2 ssm_southNorth.2" vType="carCustom" speedFactor="0.97" vaporized=""/>
    <tripinfo id="westEastBottom0.14" depart="90.00" departLane="westJunction_0" departPos="5.10" departSpeed="20.57" departDelay="2.18" arrival="142.00" arrivalLane="junctionEast_1" arrivalPos="492.80" arrivalSpeed="21.75" duration="52.00" routeLength="994.90" waitingTime="0.00" waitingCount="0" stopTime="0.00" timeLoss="6.57" rerouteNo="0" devices="tripinfo_westEastBottom0.14 ssm_westEastBottom0.14" vType="carCustom" speedFactor="1.02" vaporized=""/>
    <tripinfo id="southEast.8" depart="89.00" departLane="southJunction_0" departPos="5.10" departSpeed="21.55" departDelay="0.59" arrival="143.00" arrivalLane="junctionEast_0" arrivalPos="492.80" arrivalSpeed="21.28" duration="54.00" routeLength="989.53" waitingTime="0.00" waitingCount="0" stopTime="0.00" timeLoss="8.23" rerouteNo="0" devices="tripinfo_southEast.8 ssm_southEast.8" vType="carCustom" speedFactor="0.94" vaporized=""/>
    <tripinfo id="westEastTop.14" depart="94.00" departLane="westJunction_1" departPos="5.10" departSpeed="21.41" departDelay="0.36" arrival="144.00" arrivalLane="junctionEast_1" arrivalPos="492.80" arrivalSpeed="21.79" duration="50.00" routeLength="994.90" waitingTime="0.00" waitingCount="0" stopTime="0.00" timeLoss="4.70" rerouteNo="0" devices="tripinfo_westEastTop.14 ssm_westEastTop.14" vType="carCustom" speedFactor="1.09" vaporized=""/>
    <tripinfo id="westEastBottom0.13" depart="88.00" departLane="westJunction_0" departPos="5.10" departSpeed="19.93" departDelay="1.36" arrival="145.00" arrivalLane="junctionEast_0" arrivalPos="492.80" arrivalSpeed="21.43" duration="57.00" routeLength="994.90" waitingTime="3.00" waitingCount="1" stopTime="0.00" timeLoss="11.63" rerouteNo="0" devices="tripinfo_westEastBottom0.13 ssm_westEastBottom0.13" vType="carCustom" speedFactor="0.81" vaporized=""/>
    <tripinfo id="westEastTop.15" depart="96.00" departLane="westJunction_1" departPos="5.10" departSpeed="21.55" departDelay="1.57" arrival="146.00" arrivalLane="junctionEast_1" arrivalPos="492.80" arrivalSpeed="22.16" duration="50.00" routeLength="994.90" waitingTime="0.00" waitingCount="0" stopTime="0.00" timeLoss="4.75" rerouteNo="0" devices="tripinfo_westEastTop.15 ssm_westEastTop.15" vType="carCustom" speedFactor="1.04" vaporized=""/>
    <tripinfo id="westEastBottom0.15" depart="98.00" departLane="westJunction_0" departPos="5.10" departSpeed="20.31" departDelay="0.81" arrival="147.00" arrivalLane="junctionEast_0" arrivalPos="492.80" arrivalSpeed="21.29" duration="49.00" routeLength="994.90" waitingTime="0.00" waitingCount="0" stopTime="0.00" timeLoss="4.00" rerouteNo="0" devices="tripinfo_westEastBottom0.15 ssm_westEastBottom0.15" vType="carCustom" speedFactor="1.12" vaporized=""/>
    <tripinfo id="westEastTop.16" depart="99.00" departLane="westJunction_1" departPos="5.10" departSpeed="21.41" departDelay="0.18" arrival="148.00" arrivalLane="junctionEast_1" arrivalPos="492.80" arrivalSpeed="21.87" duration="49.00" routeLength="994.90" waitingTime="0.00" waitingCount="0" stopTime="0.00" timeLoss="3.77" rerouteNo="0" devices="tripinfo_westEastTop.16 ssm_westEastTop.16" vType="carCustom" speedFactor="0.98" vaporized=""/>
    <tripinfo id="westEastTop.17" depart="103.00" departLane="westJunction_1" departPos="5.10" departSpeed="21.62" departDelay="0.59" arrival="150.00" arrivalLane="junctionEast_0" arrivalPos="492.80" arrivalSpeed="21.99" duration="47.00" routeLength="994.90" waitingTime="0.00" waitingCount="0" stopTime="0.00" timeLoss="1.73" rerouteNo="0" devices="tripinfo_westEastTop.17 ssm_westEastTop.17" vType="carCustom" speedFactor="0.99" vaporized=""/>
    <tripinfo id="southEast.9" depart="94.00" departLane="southJunction_0" departPos="5.10" departSpeed="22.01" departDelay="0.26" arrival="152.00" arrivalLane="junctionEast_0" arrivalPos="492.80" arrivalSpeed="21.23" duration="58.00" routeLength="989.53" waitingTime="2.00" waitingCount="1" stopTime="0.00" timeLoss="12.30" rerouteNo="0" devices="tripinfo_southEast.9 ssm_southEast.9" vType="carCustom" speedFactor="0.98" vaporized=""/>
    <tripinfo id="southEast.10" depart="101.00" departLane="southJunction_0" departPos="5.10" departSpeed="20.98" departDelay="0.29" arrival="155.00" arrivalLane="junctionEast_0" arrivalPos="492.80" arrivalSpeed="21.12" duration="54.00" routeLength="989.53" waitingTime="0.00" waitingCount="0" stopTime="0.00" timeLoss="7.90" rerouteNo="0" devices="tripinfo_southEast.10 ssm_southEast.10" vType="carCustom" speedFactor="1.01" vaporized=""/>
    <tripinfo id="westEastTop.18" depart="108.00" departLane="westJunction_1" departPos="5.10" departSpeed="21.08" departDelay="0.84" arrival="155.00" arrivalLane="junctionEast_1" arrivalPos="492.80" arrivalSpeed="21.27" duration="47.00" routeLength="994.90" waitingTime="0.00" waitingCount="0" stopTime="0.00" timeLoss="1.28" rerouteNo="0" devices="tripinfo_westEastTop.18 ssm_westEastTop.18" vType="carCustom" speedFactor="1.03" vaporized=""/>
    <tripinfo id="westEastBottom0.16" depart="110.00" departLane="westJunction_0" departPos="5.10" departSpeed="21.62" departDelay="0.86" arrival="157.00" arrivalLane="junctionEast_1" arrivalPos="492.80" arrivalSpeed="21.05" duration="47.00" routeLength="994.90" waitingTime="0.00" waitingCount="0" stopTime="0.00" timeLoss="1.43" rerouteNo="0" devices="tripinfo_westEastBottom0.16 ssm_westEastBottom0.16" vType="carCustom" speedFactor="1.00" vaporized=""/>
    <tripinfo id="westEastBottom0.17" depart="112.00" departLane="westJunction_0" departPos="5.10" departSpeed="21.89" departDelay="2.39" arrival="159.00" arrivalLane="junctionEast_0" arrivalPos="492.80" arrivalSpeed="21.91" duration="47.00" routeLength="994.90" waitingTime="0.00" waitingCount="0" stopTime="0.00" timeLoss="1.35" rerouteNo="0" devices="tripinfo_westEastBottom0.17 ssm_westEastBottom0.17" vType="carCustom" speedFactor="0.90" vaporized=""/>
    <tripinfo id="southNorth.3" depart="112.00" departLane="southJunction_1" departPos="5.10" departSpeed="22.22" departDelay="0.49" arrival="162.00" arrivalLane="junctionNorth_0" arrivalPos="492.80" arrivalSpeed="22.10" duration="50.00" routeLength="995.01" waitingTime="0.00" waitingCount="0" stopTime="0.00" timeLoss="5.07" rerouteNo="0" devices="tripinfo_southNorth.3 ssm_southNorth.3" vType="carCustom" speedFactor="0.90" vaporized=""/>
    <tripinfo id="southNorth.4" depart="114.00" departLane="southJunction_1" departPos="5.10" departSpeed="22.14" departDelay="1.77" arrival="164.00" arrivalLane="junctionNorth_0" arrivalPos="492.80" arrivalSpeed="21.63" duration="50.00" routeLength="995.01" waitingTime="0.00" waitingCount="0" stopTime="0.00" timeLoss="5.18" rerouteNo="0" devices="tripinfo_southNorth.4 ssm_southNorth.4" vType="carCustom" speedFactor="1.06" vaporized=""/>
    <tripinfo id="southNorth.5" depart="116.00" departLane="southJunction_1" departPos="5.10" departSpeed="21.48" departDelay="3.35" arrival="166.00" arrivalLane="junctionNorth_0" arrivalPos="492.80" arrivalSpeed="21.85" duration="50.00" routeLength="995.01" waitingTime="0.00" waitingCount="0" stopTime="0.00" timeLoss="5.21" rerouteNo="0" devices="tripinfo_southNorth.5 ssm_southNorth.5" vType="carCustom" speedFactor="0.93" vaporized=""/>
    <tripinfo id="westEastTop.19" depart="116.00" departLane="westJunction_1" departPos="5.10" departSpeed="21.50" departDelay="0.62" arrival="168.00" arrivalLane="junctionEast_0" arrivalPos="492.80" arrivalSpeed="21.37" duration="52.00" routeLength="994.90" waitingTime="0.00" waitingCount="0" stopTime="0.00" timeLoss="7.17" rerouteNo="0" devices="tripinfo_westEastTop.19 ssm_westEastTop.19" vType="carCustom" speedFactor="1.03" vaporized=""/>
    <tripinfo id="westEastBottom0.18" depart="114.00" departLane="westJunction_0" departPos="5.10" departSpeed="21.73" departDelay="1.27" arrival="170.00" arrivalLane="junctionEast_0" arrivalPos="492.80" arrivalSpeed="21.49" duration="56.00" routeLength="994.90" waitingTime="4.00" waitingCount="1" stopTime="0.00" timeLoss="10.88" rerouteNo="0" devices="tripinfo_westEastBottom0.18 ssm_westEastBottom0.18" vType="carCustom" speedFactor="1.01" vaporized=""/>
    <tripinfo id="southNorth.6" depart="118.00" departLane="southJunction_1" departPos="5.10" departSpeed="21.70" departDelay="4.78" arrival="175.00" arrivalLane="junctionNorth_0" arrivalPos="492.80" arrivalSpeed="21.32" duration="57.00" routeLength="995.01" waitingTime="0.00" waitingCount="0" stopTime="0.00" timeLoss="12.18" rerouteNo="0" devices="tripinfo_southNorth.6 ssm_southNorth.6" vType="carCustom" speedFactor="0.92" vaporized=""/>
    <tripinfo id="southEast.11" depart="117.00" departLane="southJunction_0" departPos="5.10" departSpeed="22.05" departDelay="0.79" arrival="176.00" arrivalLane="junctionEast_0" arrivalPos="492.80" arrivalSpeed="21.84" duration="59.00" routeLength="989.53" waitingTime="3.00" waitingCount="1" stopTime="0.00" timeLoss="12.45" rerouteNo="0" devices="tripinfo_southEast.11 ssm_southEast.11" vType="carCustom" speedFactor="0.95" vaporized=""/>
    <tripinfo id="southEast.12" depart="119.00" departLane="southJunction_0" departPos="5.10" departSpeed="21.70" departDelay="2.37" arrival="178.00" arrivalLane="junctionEast_0" arrivalPos="492.80" arrivalSpeed="22.04" duration="59.00" routeLength="989.53" waitingTime="0.00" waitingCount="0" stopTime="0.00" timeLoss="12.98" rerouteNo="0" devices="tripinfo_southEast.12 ssm_southEast.12" vType="carCustom" speedFactor="0.99" vaporized=""/>
    <tripinfo id="westEastTop.20" depart="126.00" departLane="westJunction_1" departPos="5.10" departSpeed="20.94" departDelay="0.99" arrival="179.00" arrivalLane="junctionEast_1" arrivalPos="492.80" arrivalSpeed="21.14" duration="53.00" routeLength="994.90" waitingTime="0.00" waitingCount="0" stopTime="0.00" timeLoss="7.36" rerouteNo="0" devices="tripinfo_westEastTop.20 ssm_westEastTop.20" vType="carCustom" speedFactor="1.00" vaporized=""/>
    <tripinfo id="westEastBottom0.19" depart="125.00" departLane="westJunction_0" departPos="5.10" departSpeed="20.72" departDelay="0.27" arrival="180.00" arrivalLane="junctionEast_0" arrivalPos="492.80" arrivalSpeed="21.44" duration="55.00" routeLength="994.90" waitingTime="0.00" waitingCount="0" stopTime="0.00" timeLoss="9.54" rerouteNo="0" devices="tripinfo_westEastBottom0.19 ssm_westEastBottom0.19" vType="carCustom" speedFactor="0.90" vaporized=""/>
    <tripinfo id="westEastTop.21" depart="128.00" departLane="westJunction_1" departPos="5.10" departSpeed="21.04" departDelay="1.58" arrival="181.00" arrivalLane="junctionEast_1" arrivalPos="492.80" arrivalSpeed="21.35" duration="53.00" routeLength="994.90" waitingTime="0.00" waitingCount="0" stopTime="0.00" timeLoss="7.43" rerouteNo="0" devices="tripinfo_westEastTop.21 ssm_westEastTop.21" vType="carCustom" speedFactor="1.13" vaporized=""/>
    <tripinfo id="westEastTop.22" depart="130.00" departLane="westJunction_1" departPos="5.10" departSpeed="20.62" departDelay="1.36" arrival="183.00" arrivalLane="junctionEast_0" arrivalPos="492.80" arrivalSpeed="20.96" duration="53.00" routeLength="994.90" waitingTime="0.00" waitingCount="0" stopTime="0.00" timeLoss="7.36" rerouteNo="0" devices="tripinfo_westEastTop.22 ssm_westEastTop.22" vType="carCustom" speedFactor="1.00" vaporized=""/>