<?xml version="1.0" encoding="UTF-8"?>

<!-- generated on 2025-04-29 07:48:06 by Eclipse SUMO sumo Version 1.20.0
<configuration xmlns:xsi="http://www.w3.org/2001/XMLSchema-instance" xsi:noNamespaceSchemaLocation="http://sumo.dlr.de/xsd/sumoConfiguration.xsd">

    <input>
        <net-file value="nets/2lane_unprotected_right/2lane_unprotected_right.net.xml"/>
        <route-files value="nets/2lane_unprotected_right/2lane_unprotected_right.rou.xml"/>
    </input>

    <output>
        <tripinfo-output value="traces/transs50f1_s50_f0.5_random/0126_tripinfo.xml"/>
        <collision-output value="traces/transs50f1_s50_f0.5_random/0126_collisions.xml"/>
        <statistic-output value="traces/transs50f1_s50_f0.5_random/0126_statistics.xml"/>
    </output>

    <processing>
        <collision.action value="teleport"/>
        <collision.check-junctions value="true"/>
        <time-to-teleport value="-1"/>
        <waiting-time-memory value="1000"/>
        <max-depart-delay value="-1"/>
        <default.speeddev value="0.1"/>
    </processing>

    <report>
        <no-warnings value="true"/>
    </report>

    <ssm_device>
        <device.ssm.probability value="1.0"/>
        <device.ssm.measures value="BR"/>
        <device.ssm.file value="/Users/finn/Code/CausalKnowledgeTransfer-4-SafeRL/traces/transs50f1_s50_f0.5_random/0126_ssm.xml"/>
    </ssm_device>

    <traci_server>
        <remote-port value="63969"/>
    </traci_server>

    <random_number>
        <random value="true"/>
    </random_number>

</configuration>
-->

<tripinfos xmlns:xsi="http://www.w3.org/2001/XMLSchema-instance" xsi:noNamespaceSchemaLocation="http://sumo.dlr.de/xsd/tripinfo_file.xsd">
    <tripinfo id="westEastTop.0" depart="1.00" departLane="westJunction_1" departPos="5.10" departSpeed="27.78" departDelay="0.02" arrival="38.00" arrivalLane="junctionEast_1" arrivalPos="492.80" arrivalSpeed="27.55" duration="37.00" routeLength="994.90" waitingTime="0.00" waitingCount="0" stopTime="0.00" timeLoss="0.86" rerouteNo="0" devices="tripinfo_westEastTop.0 ssm_westEastTop.0" vType="carCustom" speedFactor="1.03" vaporized=""/>
    <tripinfo id="westEastTop.1" depart="3.00" departLane="westJunction_1" departPos="5.10" departSpeed="27.55" departDelay="1.44" arrival="40.00" arrivalLane="junctionEast_1" arrivalPos="492.80" arrivalSpeed="26.96" duration="37.00" routeLength="994.90" waitingTime="0.00" waitingCount="0" stopTime="0.00" timeLoss="0.93" rerouteNo="0" devices="tripinfo_westEastTop.1 ssm_westEastTop.1" vType="carCustom" speedFactor="0.94" vaporized=""/>
    <tripinfo id="westEastTop.2" depart="5.00" departLane="westJunction_1" departPos="5.10" departSpeed="26.96" departDelay="3.02" arrival="42.00" arrivalLane="junctionEast_1" arrivalPos="492.80" arrivalSpeed="27.50" duration="37.00" routeLength="994.90" waitingTime="0.00" waitingCount="0" stopTime="0.00" timeLoss="0.77" rerouteNo="0" devices="tripinfo_westEastTop.2 ssm_westEastTop.2" vType="carCustom" speedFactor="1.23" vaporized=""/>
    <tripinfo id="westEastTop.3" depart="9.00" departLane="westJunction_1" departPos="5.10" departSpeed="27.59" departDelay="0.91" arrival="46.00" arrivalLane="junctionEast_1" arrivalPos="492.80" arrivalSpeed="27.51" duration="37.00" routeLength="994.90" waitingTime="0.00" waitingCount="0" stopTime="0.00" timeLoss="0.72" rerouteNo="0" devices="tripinfo_westEastTop.3 ssm_westEastTop.3" vType="carCustom" speedFactor="0.98" vaporized=""/>
    <tripinfo id="southEast.0" depart="1.00" departLane="southJunction_0" departPos="5.10" departSpeed="27.78" departDelay="0.76" arrival="47.00" arrivalLane="junctionEast_0" arrivalPos="492.80" arrivalSpeed="26.75" duration="46.00" routeLength="989.53" waitingTime="0.00" waitingCount="0" stopTime="0.00" timeLoss="9.36" rerouteNo="0" devices="tripinfo_southEast.0 ssm_southEast.0" vType="carCustom" speedFactor="1.06" vaporized=""/>
    <tripinfo id="westEastTop.4" depart="11.00" departLane="westJunction_1" departPos="5.10" departSpeed="27.76" departDelay="0.61" arrival="48.00" arrivalLane="junctionEast_1" arrivalPos="492.80" arrivalSpeed="26.60" duration="37.00" routeLength="994.90" waitingTime="0.00" waitingCount="0" stopTime="0.00" timeLoss="0.77" rerouteNo="0" devices="tripinfo_westEastTop.4 ssm_westEastTop.4" vType="carCustom" speedFactor="1.03" vaporized=""/>
    <tripinfo id="southEast.1" depart="5.00" departLane="southJunction_0" departPos="5.10" departSpeed="27.50" departDelay="0.11" arrival="51.00" arrivalLane="junctionEast_0" arrivalPos="492.80" arrivalSpeed="26.61" duration="46.00" routeLength="989.53" waitingTime="0.00" waitingCount="0" stopTime="0.00" timeLoss="8.06" rerouteNo="0" devices="tripinfo_southEast.1 ssm_southEast.1" vType="carCustom" speedFactor="1.00" vaporized=""/>
    <tripinfo id="westEastTop.5" depart="14.00" departLane="westJunction_1" departPos="5.10" departSpeed="27.77" departDelay="0.24" arrival="51.00" arrivalLane="junctionEast_1" arrivalPos="492.80" arrivalSpeed="27.59" duration="37.00" routeLength="994.90" waitingTime="0.00" waitingCount="0" stopTime="0.00" timeLoss="0.75" rerouteNo="0" devices="tripinfo_westEastTop.5 ssm_westEastTop.5" vType="carCustom" speedFactor="1.13" vaporized=""/>
    <tripinfo id="westEastBottom0.0" depart="16.00" departLane="westJunction_0" departPos="5.10" departSpeed="27.78" departDelay="0.75" arrival="53.00" arrivalLane="junctionEast_0" arrivalPos="492.80" arrivalSpeed="27.37" duration="37.00" routeLength="994.90" waitingTime="0.00" waitingCount="0" stopTime="0.00" timeLoss="0.79" rerouteNo="0" devices="tripinfo_westEastBottom0.0 ssm_westEastBottom0.0" vType="carCustom" speedFactor="0.89" vaporized=""/>
    <tripinfo id="westEastBottom0.1" depart="18.00" departLane="westJunction_0" departPos="5.10" departSpeed="27.55" departDelay="1.56" arrival="55.00" arrivalLane="junctionEast_0" arrivalPos="492.80" arrivalSpeed="27.70" duration="37.00" routeLength="994.90" waitingTime="0.00" waitingCount="0" stopTime="0.00" timeLoss="0.72" rerouteNo="0" devices="tripinfo_westEastBottom0.1 ssm_westEastBottom0.1" vType="carCustom" speedFactor="1.06" vaporized=""/>
    <tripinfo id="westEastTop.6" depart="18.00" departLane="westJunction_1" departPos="5.10" departSpeed="27.45" departDelay="0.86" arrival="55.00" arrivalLane="junctionEast_1" arrivalPos="492.80" arrivalSpeed="26.67" duration="37.00" routeLength="994.90" waitingTime="0.00" waitingCount="0" stopTime="0.00" timeLoss="0.89" rerouteNo="0" devices="tripinfo_westEastTop.6 ssm_westEastTop.6" vType="carCustom" speedFactor="0.94" vaporized=""/>
    <tripinfo id="southNorth.0" depart="18.00" departLane="southJunction_1" departPos="5.10" departSpeed="27.78" departDelay="0.89" arrival="57.00" arrivalLane="junctionNorth_0" arrivalPos="492.80" arrivalSpeed="27.59" duration="39.00" routeLength="995.01" waitingTime="0.00" waitingCount="0" stopTime="0.00" timeLoss="3.02" rerouteNo="0" devices="tripinfo_southNorth.0 ssm_southNorth.0" vType="carCustom" speedFactor="0.88" vaporized=""/>
    <tripinfo id="westEastTop.7" depart="20.00" departLane="westJunction_1" departPos="5.10" departSpeed="26.84" departDelay="0.17" arrival="66.00" arrivalLane="junctionEast_0" arrivalPos="492.80" arrivalSpeed="27.27" duration="46.00" routeLength="994.90" waitingTime="0.00" waitingCount="0" stopTime="0.00" timeLoss="10.13" rerouteNo="0" devices="tripinfo_westEastTop.7 ssm_westEastTop.7" vType="carCustom" speedFactor="0.86" vaporized=""/>
    <tripinfo id="westEastBottom0.2" depart="26.00" departLane="westJunction_0" departPos="5.10" departSpeed="27.59" departDelay="0.26" arrival="68.00" arrivalLane="junctionEast_1" arrivalPos="492.80" arrivalSpeed="27.28" duration="42.00" routeLength="994.90" waitingTime="0.00" waitingCount="0" stopTime="0.00" timeLoss="5.68" rerouteNo="0" devices="tripinfo_westEastBottom0.2 ssm_westEastBottom0.2" vType="carCustom" speedFactor="0.97" vaporized=""/>
    <tripinfo id="westEastTop.8" depart="30.00" departLane="westJunction_1" departPos="5.10" departSpeed="27.16" departDelay="0.60" arrival="70.00" arrivalLane="junctionEast_1" arrivalPos="492.80" arrivalSpeed="27.13" duration="40.00" routeLength="994.90" waitingTime="0.00" waitingCount="0" stopTime="0.00" timeLoss="3.34" rerouteNo="0" devices="tripinfo_westEastTop.8 ssm_westEastTop.8" vType="carCustom" speedFactor="0.96" vaporized=""/>
    <tripinfo id="westEastTop.9" depart="32.00" departLane="westJunction_1" departPos="5.10" departSpeed="26.51" departDelay="0.70" arrival="71.00" arrivalLane="junctionEast_1" arrivalPos="492.80" arrivalSpeed="27.01" duration="39.00" routeLength="994.90" waitingTime="0.00" waitingCount="0" stopTime="0.00" timeLoss="3.03" rerouteNo="0" devices="tripinfo_westEastTop.9 ssm_westEastTop.9" vType="carCustom" speedFactor="1.10" vaporized=""/>
    <tripinfo id="southEast.2" depart="22.00" departLane="southJunction_0" departPos="5.10" departSpeed="17.81" departDelay="0.37" arrival="72.00" arrivalLane="junctionEast_0" arrivalPos="492.80" arrivalSpeed="27.38" duration="50.00" routeLength="989.53" waitingTime="3.00" waitingCount="1" stopTime="0.00" timeLoss="13.52" rerouteNo="0" devices="tripinfo_southEast.2 ssm_southEast.2" vType="carCustom" speedFactor="1.07" vaporized=""/>
    <tripinfo id="southEast.3" depart="24.00" departLane="southJunction_0" departPos="5.10" departSpeed="22.78" departDelay="0.59" arrival="74.00" arrivalLane="junctionEast_0" arrivalPos="492.80" arrivalSpeed="27.64" duration="50.00" routeLength="989.53" waitingTime="1.00" waitingCount="1" stopTime="0.00" timeLoss="13.03" rerouteNo="0" devices="tripinfo_southEast.3 ssm_southEast.3" vType="carCustom" speedFactor="0.97" vaporized=""/>
    <tripinfo id="westEastTop.10" depart="39.00" departLane="westJunction_1" departPos="5.10" departSpeed="27.26" departDelay="0.84" arrival="76.00" arrivalLane="junctionEast_1" arrivalPos="492.80" arrivalSpeed="26.73" duration="37.00" routeLength="994.90" waitingTime="0.00" waitingCount="0" stopTime="0.00" timeLoss="0.89" rerouteNo="0" devices="tripinfo_westEastTop.10 ssm_westEastTop.10" vType="carCustom" speedFactor="0.94" vaporized=""/>
    <tripinfo id="westEastBottom0.3" depart="40.00" departLane="westJunction_0" departPos="5.10" departSpeed="27.78" departDelay="0.91" arrival="77.00" arrivalLane="junctionEast_0" arrivalPos="492.80" arrivalSpeed="27.06" duration="37.00" routeLength="994.90" waitingTime="0.00" waitingCount="0" stopTime="0.00" timeLoss="0.98" rerouteNo="0" devices="tripinfo_westEastBottom0.3 ssm_westEastBottom0.3" vType="carCustom" speedFactor="1.14" vaporized=""/>
    <tripinfo id="southEast.4" depart="31.00" departLane="southJunction_0" departPos="5.10" departSpeed="27.30" departDelay="0.57" arrival="82.00" arrivalLane="junctionEast_0" arrivalPos="492.80" arrivalSpeed="27.28" duration="51.00" routeLength="989.53" waitingTime="2.00" waitingCount="1" stopTime="0.00" timeLoss="14.00" rerouteNo="0" devices="tripinfo_southEast.4 ssm_southEast.4" vType="carCustom" speedFactor="1.02" vaporized=""/>
    <tripinfo id="southNorth.1" depart="41.00" departLane="southJunction_1" departPos="5.10" departSpeed="27.78" departDelay="0.15" arrival="84.00" arrivalLane="junctionNorth_0" arrivalPos="492.80" arrivalSpeed="27.15" duration="43.00" routeLength="995.01" waitingTime="0.00" waitingCount="0" stopTime="0.00" timeLoss="6.27" rerouteNo="0" devices="tripinfo_southNorth.1 ssm_southNorth.1" vType="carCustom" speedFactor="0.90" vaporized=""/>
    <tripinfo id="southEast.5" depart="36.00" departLane="southJunction_0" departPos="5.10" departSpeed="26.79" departDelay="0.32" arrival="85.00" arrivalLane="junctionEast_0" arrivalPos="492.80" arrivalSpeed="27.23" duration="49.00" routeLength="989.53" waitingTime="0.00" waitingCount="0" stopTime="0.00" timeLoss="11.46" rerouteNo="0" devices="tripinfo_southEast.5 ssm_southEast.5" vType="carCustom" speedFactor="0.90" vaporized=""/>
    <tripinfo id="southEast.6" depart="38.00" departLane="southJunction_0" departPos="5.10" departSpeed="27.37" departDelay="2.09" arrival="87.00" arrivalLane="junctionEast_0" arrivalPos="492.80" arrivalSpeed="27.43" duration="49.00" routeLength="989.53" waitingTime="0.00" waitingCount="0" stopTime="0.00" timeLoss="11.85" rerouteNo="0" devices="tripinfo_southEast.6 ssm_southEast.6" vType="carCustom" speedFactor="1.09" vaporized=""/>
    <tripinfo id="westEastBottom0.5" depart="49.00" departLane="westJunction_0" departPos="5.10" departSpeed="27.62" departDelay="0.99" arrival="90.00" arrivalLane="junctionEast_0" arrivalPos="492.80" arrivalSpeed="26.56" duration="41.00" routeLength="994.90" waitingTime="0.00" waitingCount="0" stopTime="0.00" timeLoss="4.99" rerouteNo="0" devices="tripinfo_westEastBottom0.5 ssm_westEastBottom0.5" vType="carCustom" speedFactor="0.99" vaporized=""/>
    <tripinfo id="westEastBottom0.4" depart="44.00" departLane="westJunction_0" departPos="5.10" departSpeed="27.78" departDelay="0.91" arrival="92.00" arrivalLane="junctionEast_1" arrivalPos="492.80" arrivalSpeed="27.73" duration="48.00" routeLength="994.90" waitingTime="4.00" waitingCount="1" stopTime="0.00" timeLoss="11.72" rerouteNo="0" devices="tripinfo_westEastBottom0.4 ssm_westEastBottom0.4" vType="carCustom" speedFactor="0.95" vaporized=""/>
    <tripinfo id="westEastTop.11" depart="45.00" departLane="westJunction_1" departPos="5.10" departSpeed="26.89" departDelay="0.92" arrival="94.00" arrivalLane="junctionEast_1" arrivalPos="492.80" arrivalSpeed="27.53" duration="49.00" routeLength="994.90" waitingTime="1.00" waitingCount="1" stopTime="0.00" timeLoss="12.56" rerouteNo="0" devices="tripinfo_westEastTop.11 ssm_westEastTop.11" vType="carCustom" speedFactor="0.81" vaporized=""/>
    <tripinfo id="westEastTop.12" depart="49.00" departLane="westJunction_1" departPos="5.10" departSpeed="27.68" departDelay="0.82" arrival="95.00" arrivalLane="junctionEast_1" arrivalPos="492.80" arrivalSpeed="26.90" duration="46.00" routeLength="994.90" waitingTime="0.00" waitingCount="0" stopTime="0.00" timeLoss="10.18" rerouteNo="0" devices="tripinfo_westEastTop.12 ssm_westEastTop.12" vType="carCustom" speedFactor="0.86" vaporized=""/>
    <tripinfo id="westEastBottom0.6" depart="52.00" departLane="westJunction_0" departPos="5.10" departSpeed="27.73" departDelay="0.42" arrival="95.00" arrivalLane="junctionEast_0" arrivalPos="492.80" arrivalSpeed="27.11" duration="43.00" routeLength="994.90" waitingTime="0.00" waitingCount="0" stopTime="0.00" timeLoss="6.24" rerouteNo="0" devices="tripinfo_westEastBottom0.6 ssm_westEastBottom0.6" vType="carCustom" speedFactor="1.07" vaporized=""/>
    <tripinfo id="westEastTop.13" depart="51.00" departLane="westJunction_1" departPos="5.10" departSpeed="27.17" departDelay="0.14" arrival="97.00" arrivalLane="junctionEast_1" arrivalPos="492.80" arrivalSpeed="27.36" duration="46.00" routeLength="994.90" waitingTime="0.00" waitingCount="0" stopTime="0.00" timeLoss="9.79" rerouteNo="0" devices="tripinfo_westEastTop.13 ssm_westEastTop.13" vType="carCustom" speedFactor="1.02" vaporized=""/>
    <tripinfo id="westEastTop.14" depart="53.00" departLane="westJunction_1" departPos="5.10" departSpeed="27.06" departDelay="0.95" arrival="99.00" arrivalLane="junctionEast_1" arrivalPos="492.80" arrivalSpeed="27.46" duration="46.00" routeLength="994.90" waitingTime="0.00" waitingCount="0" stopTime="0.00" timeLoss="9.35" rerouteNo="0" devices="tripinfo_westEastTop.14 ssm_westEastTop.14" vType="carCustom" speedFactor="0.97" vaporized=""/>
    <tripinfo id="westEastTop.15" depart="55.00" departLane="westJunction_1" departPos="5.10" departSpeed="26.80" departDelay="2.09" arrival="100.00" arrivalLane="junctionEast_1" arrivalPos="492.80" arrivalSpeed="26.74" duration="45.00" routeLength="994.90" waitingTime="0.00" waitingCount="0" stopTime="0.00" timeLoss="8.92" rerouteNo="0" devices="tripinfo_westEastTop.15 ssm_westEastTop.15" vType="carCustom" speedFactor="0.95" vaporized=""/>
    <tripinfo id="westEastTop.16" depart="57.00" departLane="westJunction_1" departPos="5.10" departSpeed="26.91" departDelay="0.07" arrival="102.00" arrivalLane="junctionEast_1" arrivalPos="492.80" arrivalSpeed="26.79" duration="45.00" routeLength="994.90" waitingTime="0.00" waitingCount="0" stopTime="0.00" timeLoss="8.57" rerouteNo="0" devices="tripinfo_westEastTop.16 ssm_westEastTop.16" vType="carCustom" speedFactor="0.96" vaporized=""/>
    <tripinfo id="westEastTop.17" depart="59.00" departLane="westJunction_1" departPos="5.10" departSpeed="26.58" departDelay="0.87" arrival="103.00" arrivalLane="junctionEast_1" arrivalPos="492.80" arrivalSpeed="27.41" duration="44.00" routeLength="994.90" waitingTime="0.00" waitingCount="0" stopTime="0.00" timeLoss="8.15" rerouteNo="0" devices="tripinfo_westEastTop.17 ssm_westEastTop.17" vType="carCustom" speedFactor="1.04" vaporized=""/>
    <tripinfo id="westEastTop.18" depart="62.00" departLane="westJunction_1" departPos="5.10" departSpeed="27.09" departDelay="0.21" arrival="105.00" arrivalLane="junctionEast_1" arrivalPos="492.80" arrivalSpeed="27.67" duration="43.00" routeLength="994.90" waitingTime="0.00" waitingCount="0" stopTime="0.00" timeLoss="6.76" rerouteNo="0" devices="tripinfo_westEastTop.18 ssm_westEastTop.18" vType="carCustom" speedFactor="0.78" vaporized=""/>
    <tripinfo id="southNorth.2" depart="68.00" departLane="southJunction_1" departPos="5.10" departSpeed="27.78" departDelay="0.08" arrival="106.00" arrivalLane="junctionNorth_0" arrivalPos="492.80" arrivalSpeed="26.63" duration="38.00" routeLength="995.01" waitingTime="0.00" waitingCount="0" stopTime="0.00" timeLoss="1.57" rerouteNo="0" devices="tripinfo_southNorth.2 ssm_southNorth.2" vType="carCustom" speedFactor="1.04" vaporized=""/>
    <tripinfo id="westEastTop.19" depart="68.00" departLane="westJunction_1" departPos="5.10" departSpeed="26.97" departDelay="0.84" arrival="115.00" arrivalLane="junctionEast_0" arrivalPos="492.80" arrivalSpeed="26.87" duration="47.00" routeLength="994.90" waitingTime="1.00" waitingCount="1" stopTime="0.00" timeLoss="10.70" rerouteNo="0" devices="tripinfo_westEastTop.19 ssm_westEastTop.19" vType="carCustom" speedFactor="0.92" vaporized=""/>
    <tripinfo id="westEastTop.20" depart="74.00" departLane="westJunction_1" departPos="5.10" departSpeed="27.31" departDelay="0.94" arrival="116.00" arrivalLane="junctionEast_1" arrivalPos="492.80" arrivalSpeed="27.04" duration="42.00" routeLength="994.90" waitingTime="0.00" waitingCount="0" stopTime="0.00" timeLoss="6.16" rerouteNo="0" devices="tripinfo_westEastTop.20 ssm_westEastTop.20" vType="carCustom" speedFactor="0.93" vaporized=""/>
    <tripinfo id="westEastTop.21" depart="82.00" departLane="westJunction_1" departPos="5.10" departSpeed="27.67" departDelay="0.00" arrival="119.00" arrivalLane="junctionEast_1" arrivalPos="492.80" arrivalSpeed="27.17" duration="37.00" routeLength="994.90" waitingTime="0.00" waitingCount="0" stopTime="0.00" timeLoss="1.04" rerouteNo="0" devices="tripinfo_westEastTop.21 ssm_westEastTop.21" vType="carCustom" speedFactor="0.91" vaporized=""/>
    <tripinfo id="southEast.7" depart="76.00" departLane="southJunction_0" departPos="5.10" departSpeed="27.78" departDelay="0.27" arrival="121.00" arrivalLane="junctionEast_0" arrivalPos="492.80" arrivalSpeed="26.64" duration="45.00" routeLength="989.53" waitingTime="0.00" waitingCount="0" stopTime="0.00" timeLoss="7.86" rerouteNo="0" devices="tripinfo_southEast.7 ssm_southEast.7" vType="carCustom" speedFactor="0.91" vaporized=""/>
    <tripinfo id="westEastTop.22" depart="84.00" departLane="westJunction_1" departPos="5.10" departSpeed="26.62" departDelay="0.06" arrival="121.00" arrivalLane="junctionEast_1" arrivalPos="492.80" arrivalSpeed="26.78" duration="37.00" routeLength="994.90" waitingTime="0.00" waitingCount="0" stopTime="0.00" timeLoss="0.97" rerouteNo="0" devices="tripinfo_westEastTop.22 ssm_westEastTop.22" vType="carCustom" speedFactor="0.96" vaporized=""/>
    <tripinfo id="westEastBottom0.7" depart="88.00" departLane="westJunction_0" departPos="5.10" departSpeed="27.78" departDelay="0.75" arrival="125.00" arrivalLane="junctionEast_0" arrivalPos="492.80" arrivalSpeed="27.40" duration="37.00" routeLength="994.90" waitingTime="0.00" waitingCount="0" stopTime="0.00" timeLoss="0.89" rerouteNo="0" devices="tripinfo_westEastBottom0.7 ssm_westEastBottom0.7" vType="carCustom" speedFactor="0.96" vaporized=""/>
    <tripinfo id="westEastBottom0.8" depart="90.00" departLane="westJunction_0" departPos="5.10" departSpeed="26.98" departDelay="1.65" arrival="127.00" arrivalLane="junctionEast_0" arrivalPos="492.80" arrivalSpeed="26.64" duration="37.00" routeLength="994.90" waitingTime="0.00" waitingCount="0" stopTime="0.00" timeLoss="0.84" rerouteNo="0" devices="tripinfo_westEastBottom0.8 ssm_westEastBottom0.8" vType="carCustom" speedFactor="1.05" vaporized=""/>
    <tripinfo id="westEastBottom0.9" depart="96.00" departLane="westJunction_0" departPos="5.10" departSpeed="27.08" departDelay="0.07" arrival="133.00" arrivalLane="junctionEast_0" arrivalPos="492.80" arrivalSpeed="26.94" duration="37.00" routeLength="994.90" waitingTime="0.00" waitingCount="0" stopTime="0.00" timeLoss="0.89" rerouteNo="0" devices="tripinfo_westEastBottom0.9 ssm_westEastBottom0.9" vType="carCustom" speedFactor="1.05" vaporized=""/>
    <tripinfo id="westEastTop.23" depart="97.00" departLane="westJunction_1" departPos="5.10" departSpeed="27.13" departDelay="0.57" arrival="134.00" arrivalLane="junctionEast_1" arrivalPos="492.80" arrivalSpeed="27.72" duration="37.00" routeLength="994.90" waitingTime="0.00" waitingCount="0" stopTime="0.00" timeLoss="0.84" rerouteNo="0" devices="tripinfo_westEastTop.23 ssm_westEastTop.23" vType="carCustom" speedFactor="1.08" vaporized=""/>
    <tripinfo id="southEast.8" depart="94.00" departLane="southJunction_0" departPos="5.10" departSpeed="15.51" departDelay="0.62" arrival="139.00" arrivalLane="junctionEast_0" arrivalPos="492.80" arrivalSpeed="27.73" duration="45.00" routeLength="989.53" waitingTime="0.00" waitingCount="0" stopTime="0.00" timeLoss="8.59" rerouteNo="0" devices="tripinfo_southEast.8 ssm_southEast.8" vType="carCustom" speedFactor="1.12" vaporized=""/>
    <tripinfo id="westEastBottom0.10" depart="107.00" departLane="westJunction_0" departPos="5.10" departSpeed="27.38" departDelay="0.66" arrival="144.00" arrivalLane="junctionEast_0" arrivalPos="492.80" arrivalSpeed="26.72" duration="37.00" routeLength="994.90" waitingTime="0.00" waitingCount="0" stopTime="0.00" timeLoss="0.93" rerouteNo="0" devices="tripinfo_westEastBottom0.10 ssm_westEastBottom0.10" vType="carCustom" speedFactor="0.98" vaporized=""/>
    <tripinfo id="westEastTop.24" depart="110.00" departLane="westJunction_1" departPos="5.10" departSpeed="26.90" departDelay="0.04" arrival="147.00" arrivalLane="junctionEast_1" arrivalPos="492.80" arrivalSpeed="26.98" duration="37.00" routeLength="994.90" waitingTime="0.00" waitingCount="0" stopTime="0.00" timeLoss="1.03" rerouteNo="0" devices="tripinfo_westEastTop.24 ssm_westEastTop.24" vType="carCustom" speedFactor="1.09" vaporized=""/>
    <tripinfo id="southNorth.3" depart="114.00" departLane="southJunction_1" departPos="5.10" departSpeed="27.78" departDelay="0.78" arrival="151.00" arrivalLane="junctionNorth_0" arrivalPos="492.80" arrivalSpeed="26.61" duration="37.00" routeLength="995.01" waitingTime="0.00" waitingCount="0" stopTime="0.00" timeLoss="1.03" rerouteNo="0" devices="tripinfo_southNorth.3 ssm_southNorth.3" vType="carCustom" speedFactor="1.08" vaporized=""/>
    <tripinfo id="westEastBottom0.11" depart="121.00" departLane="westJunction_0" departPos="5.10" departSpeed="26.65" departDelay="0.56" arrival="170.00" arrivalLane="junctionEast_0" arrivalPos="492.80" arrivalSpeed="27.36" duration="49.00" routeLength="994.90" waitingTime="0.00" waitingCount="0" stopTime="0.00" timeLoss="12.89" rerouteNo="0" devices="tripinfo_westEastBottom0.11 ssm_westEastBottom0.11" vType="carCustom" speedFactor="0.87" vaporized=""/>
    <tripinfo id="southNorth.4" depart="132.00" departLane="southJunction_1" departPos="5.10" departSpeed="26.58" departDelay="0.65" arrival="175.00" arrivalLane="junctionNorth_0" arrivalPos="492.80" arrivalSpeed="27.04" duration="43.00" routeLength="995.01" waitingTime="0.00" waitingCount="0" stopTime="0.00" timeLoss="6.72" rerouteNo="0" devices="tripinfo_southNorth.4 ssm_southNorth.4" vType="carCustom" speedFactor="1.05" vaporized=""/>
    <tripinfo id="southNorth.5" depart="136.00" departLane="southJunction_1" departPos="5.10" departSpeed="27.70" departDelay="0.45" arrival="177.00" arrivalLane="junctionNorth_0" arrivalPos="492.80" arrivalSpeed="26.59" duration="41.00" routeLength="995.01" waitingTime="0.00" waitingCount="0" stopTime="0.00" timeLoss="4.40" rerouteNo="0" devices="tripinfo_southNorth.5 ssm_southNorth.5" vType="carCustom" speedFactor="0.92" vaporized=""/>
    <tripinfo id="westEastBottom0.12" depart="138.00" departLane="westJunction_0" departPos="5.10" departSpeed="19.24" departDelay="0.23" arrival="178.00" arrivalLane="junctionEast_1" arrivalPos="492.80" arrivalSpeed="27.50" duration="40.00" routeLength="994.90" waitingTime="0.00" waitingCount="0" stopTime="0.00" timeLoss="3.73" rerouteNo="0" devices="tripinfo_westEastBottom0.12 ssm_westEastBottom0.12" vType="carCustom" speedFactor="0.89" vaporized=""/>
    <tripinfo id="southEast.9" depart="135.00" departLane="southJunction_0" departPos="5.10" departSpeed="27.78" departDelay="0.28" arrival="179.00" arrivalLane="junctionEast_0" arrivalPos="492.80" arrivalSpeed="27.58" duration="44.00" routeLength="989.53" waitingTime="0.00" waitingCount="0" stopTime="0.00" timeLoss="7.35" rerouteNo="0" devices="tripinfo_southEast.9 ssm_southEast.9" vType="carCustom" speedFactor="0.99" vaporized=""/>
    <tripinfo id="westEastTop.25" depart="143.00" departLane="westJunction_1" departPos="5.10" departSpeed="27.78" departDelay="0.60" arrival="180.00" arrivalLane="junctionEast_1" arrivalPos="492.80" arrivalSpeed="27.15" duration="37.00" routeLength="994.90" waitingTime="0.00" waitingCount="0" stopTime="0.00" timeLoss="1.08" rerouteNo="0" devices="tripinfo_westEastTop.25 ssm_westEastTop.25" vType="carCustom" speedFactor="1.02" vaporized=""/>
    <tripinfo id="southEast.10" depart="137.00" departLane="southJunction_0" departPos="5.10" departSpeed="26.96" departDelay="1.09" arrival="188.00" arrivalLane="junctionEast_0" arrivalPos="492.80" arrivalSpeed="27.61" duration="51.00" routeLength="989.53" waitingTime="2.00" waitingCount="1" stopTime="0.00" timeLoss="14.26" rerouteNo="0" devices="tripinfo_southEast.10 ssm_southEast.10" vType="carCustom" speedFactor="0.97" vaporized=""/>
    <tripinfo id="southNorth.6" depart="148.00" departLane="southJunction_1" departPos="5.10" departSpeed="26.71" departDelay="0.14" arrival="189.00" arrivalLane="junctionNorth_0" arrivalPos="492.80" arrivalSpeed="27.59" duration="41.00" routeLength="995.01" waitingTime="0.00" waitingCount="0" stopTime="0.00" timeLoss="4.33" rerouteNo="0" devices="tripinfo_southNorth.6 ssm_southNorth.6" vType="carCustom" speedFactor="1.06" vaporized=""/>
    <tripinfo id="southEast.11" depart="141.00" departLane="southJunction_0" departPos="5.10" departSpeed="26.83" departDelay="0.34" arrival="191.00" arrivalLane="junctionEast_0" arrivalPos="492.80" arrivalSpeed="27.49" duration="50.00" routeLength="989.53" waitingTime="0.00" waitingCount="0" stopTime="0.00" timeLoss="12.61" rerouteNo="0" devices="tripinfo_southEast.11 ssm_southEast.11" vType="carCustom" speedFactor="1.01" vaporized=""/>
    <tripinfo id="southEast.12" depart="143.00" departLane="southJunction_0" departPos="5.10" departSpeed="27.46" departDelay="0.06" arrival="194.00" arrivalLane="junctionEast_0" arrivalPos="492.80" arrivalSpeed="27.59" duration="51.00" routeLength="989.53" waitingTime="0.00" waitingCount="0" stopTime="0.00" timeLoss="13.25" rerouteNo="0" devices="tripinfo_southEast.12 ssm_southEast.12" vType="carCustom" speedFactor="0.80" vaporized=""/>
    <tripinfo id="westEastTop.26" depart="153.00" departLane="westJunction_1" departPos="5.10" departSpeed="27.24" departDelay="0.28" arrival="194.00" arrivalLane="junctionEast_1" arrivalPos="492.80" arrivalSpeed="26.75" duration="41.00" routeLength="994.90" waitingTime="0.00" waitingCount="0" stopTime="0.00" timeLoss="4.49" rerouteNo="0" devices="tripinfo_westEastTop.26 ssm_westEastTop.26" vType="carCustom" speedFactor="1.22" vaporized=""/>
    <tripinfo id="westEastBottom0.13" depart="155.00" departLane="westJunction_0" departPos="5.10" departSpeed="21.15" departDelay="0.82" arrival="195.00" arrivalLane="junctionEast_1" arrivalPos="492.80" arrivalSpeed="26.90" duration="40.00" routeLength="994.90" waitingTime="0.00" waitingCount="0" stopTime="0.00" timeLoss="4.11" rerouteNo="0" devices="tripinfo_westEastBottom0.13 ssm_westEastBottom0.13" vType="carCustom" speedFactor="0.99" vaporized=""/>
    <tripinfo id="southEast.13" depart="151.00" departLane="southJunction_0" departPos="5.10" departSpeed="27.24" departDelay="0.94" arrival="197.00" arrivalLane="junctionEast_0" arrivalPos="492.80" arrivalSpeed="27.73" duration="46.00" routeLength="989.53" waitingTime="0.00" waitingCount="0" stopTime="0.00" timeLoss="8.96" rerouteNo="0" devices="tripinfo_southEast.13 ssm_southEast.13" vType="carCustom" speedFactor="1.01" vaporized=""/>
    <tripinfo id="southNorth.7" depart="157.00" departLane="southJunction_1" departPos="5.10" departSpeed="27.16" departDelay="0.91" arrival="200.00" arrivalLane="junctionNorth_0" arrivalPos="492.80" arrivalSpeed="26.58" duration="43.00" routeLength="995.01" waitingTime="0.00" waitingCount="0" stopTime="0.00" timeLoss="6.89" rerouteNo="0" devices="tripinfo_southNorth.7 ssm_southNorth.7" vType="carCustom" speedFactor="0.96" vaporized=""/>