<?xml version="1.0" encoding="UTF-8"?>

<!-- generated on 2025-04-29 07:49:18 by Eclipse SUMO sumo Version 1.20.0
<configuration xmlns:xsi="http://www.w3.org/2001/XMLSchema-instance" xsi:noNamespaceSchemaLocation="http://sumo.dlr.de/xsd/sumoConfiguration.xsd">

    <input>
        <net-file value="nets/2lane_unprotected_right/2lane_unprotected_right.net.xml"/>
        <route-files value="nets/2lane_unprotected_right/2lane_unprotected_right.rou.xml"/>
    </input>

    <output>
        <tripinfo-output value="traces/transs50f1_s50_f0.5_random/0127_tripinfo.xml"/>
        <collision-output value="traces/transs50f1_s50_f0.5_random/0127_collisions.xml"/>
        <statistic-output value="traces/transs50f1_s50_f0.5_random/0127_statistics.xml"/>
    </output>

    <processing>
        <collision.action value="teleport"/>
        <collision.check-junctions value="true"/>
        <time-to-teleport value="-1"/>
        <waiting-time-memory value="1000"/>
        <max-depart-delay value="-1"/>
        <default.speeddev value="0.1"/>
    </processing>

    <report>
        <no-warnings value="true"/>
    </report>

    <ssm_device>
        <device.ssm.probability value="1.0"/>
        <device.ssm.measures value="BR"/>
        <device.ssm.file value="/Users/finn/Code/CausalKnowledgeTransfer-4-SafeRL/traces/transs50f1_s50_f0.5_random/0127_ssm.xml"/>
    </ssm_device>

    <traci_server>
        <remote-port value="63981"/>
    </traci_server>

    <random_number>
        <random value="true"/>
    </random_number>

</configuration>
-->

<tripinfos xmlns:xsi="http://www.w3.org/2001/XMLSchema-instance" xsi:noNamespaceSchemaLocation="http://sumo.dlr.de/xsd/tripinfo_file.xsd">
    <tripinfo id="westEastTop.0" depart="8.00" departLane="westJunction_1" departPos="5.10" departSpeed="13.89" departDelay="0.15" arrival="83.00" arrivalLane="junctionEast_0" arrivalPos="492.80" arrivalSpeed="13.11" duration="75.00" routeLength="994.90" waitingTime="0.00" waitingCount="0" stopTime="0.00" timeLoss="2.79" rerouteNo="0" devices="tripinfo_westEastTop.0 ssm_westEastTop.0" vType="carCustom" speedFactor="0.95" vaporized=""/>
    <tripinfo id="westEastTop.1" depart="11.00" departLane="westJunction_1" departPos="5.10" departSpeed="13.62" departDelay="0.88" arrival="93.00" arrivalLane="junctionEast_1" arrivalPos="492.80" arrivalSpeed="13.70" duration="82.00" routeLength="994.90" waitingTime="0.00" waitingCount="0" stopTime="0.00" timeLoss="9.85" rerouteNo="0" devices="tripinfo_westEastTop.1 ssm_westEastTop.1" vType="carCustom" speedFactor="1.10" vaporized=""/>
    <tripinfo id="westEastBottom0.0" depart="17.00" departLane="westJunction_0" departPos="5.10" departSpeed="13.89" departDelay="0.02" arrival="93.00" arrivalLane="junctionEast_0" arrivalPos="492.80" arrivalSpeed="13.76" duration="76.00" routeLength="994.90" waitingTime="0.00" waitingCount="0" stopTime="0.00" timeLoss="3.87" rerouteNo="0" devices="tripinfo_westEastBottom0.0 ssm_westEastBottom0.0" vType="carCustom" speedFactor="1.10" vaporized=""/>
    <tripinfo id="southNorth.0" depart="15.00" departLane="southJunction_1" departPos="5.10" departSpeed="13.89" departDelay="0.06" arrival="97.00" arrivalLane="junctionNorth_0" arrivalPos="492.80" arrivalSpeed="12.85" duration="82.00" routeLength="995.01" waitingTime="0.00" waitingCount="0" stopTime="0.00" timeLoss="10.00" rerouteNo="0" devices="tripinfo_southNorth.0 ssm_southNorth.0" vType="carCustom" speedFactor="0.93" vaporized=""/>
    <tripinfo id="westEastBottom0.1" depart="22.00" departLane="westJunction_0" departPos="5.10" departSpeed="12.95" departDelay="0.99" arrival="103.00" arrivalLane="junctionEast_0" arrivalPos="492.80" arrivalSpeed="13.72" duration="81.00" routeLength="994.90" waitingTime="0.00" waitingCount="0" stopTime="0.00" timeLoss="9.30" rerouteNo="0" devices="tripinfo_westEastBottom0.1 ssm_westEastBottom0.1" vType="carCustom" speedFactor="0.82" vaporized=""/>
    <tripinfo id="westEastTop.2" depart="23.00" departLane="westJunction_1" departPos="5.10" departSpeed="9.68" departDelay="0.87" arrival="103.00" arrivalLane="junctionEast_1" arrivalPos="492.80" arrivalSpeed="13.12" duration="80.00" routeLength="994.90" waitingTime="0.00" waitingCount="0" stopTime="0.00" timeLoss="8.24" rerouteNo="0" devices="tripinfo_westEastTop.2 ssm_westEastTop.2" vType="carCustom" speedFactor="1.18" vaporized=""/>
    <tripinfo id="southNorth.1" depart="20.00" departLane="southJunction_1" departPos="5.10" departSpeed="12.95" departDelay="0.39" arrival="107.00" arrivalLane="junctionNorth_0" arrivalPos="492.80" arrivalSpeed="13.12" duration="87.00" routeLength="995.01" waitingTime="0.00" waitingCount="0" stopTime="0.00" timeLoss="14.91" rerouteNo="0" devices="tripinfo_southNorth.1 ssm_southNorth.1" vType="carCustom" speedFactor="0.97" vaporized=""/>
    <tripinfo id="southEast.0" depart="29.00" departLane="southJunction_0" departPos="5.10" departSpeed="13.89" departDelay="0.42" arrival="113.00" arrivalLane="junctionEast_0" arrivalPos="492.80" arrivalSpeed="13.79" duration="84.00" routeLength="989.53" waitingTime="0.00" waitingCount="0" stopTime="0.00" timeLoss="11.63" rerouteNo="0" devices="tripinfo_southEast.0 ssm_southEast.0" vType="carCustom" speedFactor="0.91" vaporized=""/>
    <tripinfo id="westEastTop.3" depart="31.00" departLane="westJunction_1" departPos="5.10" departSpeed="11.78" departDelay="0.00" arrival="113.00" arrivalLane="junctionEast_1" arrivalPos="492.80" arrivalSpeed="13.77" duration="82.00" routeLength="994.90" waitingTime="0.00" waitingCount="0" stopTime="0.00" timeLoss="10.19" rerouteNo="0" devices="tripinfo_westEastTop.3 ssm_westEastTop.3" vType="carCustom" speedFactor="0.96" vaporized=""/>
    <tripinfo id="southNorth.2" depart="24.00" departLane="southJunction_1" departPos="5.10" departSpeed="9.81" departDelay="0.90" arrival="117.00" arrivalLane="junctionNorth_0" arrivalPos="492.80" arrivalSpeed="13.18" duration="93.00" routeLength="995.01" waitingTime="0.00" waitingCount="0" stopTime="0.00" timeLoss="21.13" rerouteNo="0" devices="tripinfo_southNorth.2 ssm_southNorth.2" vType="carCustom" speedFactor="0.84" vaporized=""/>
    <tripinfo id="westEastBottom0.2" depart="30.00" departLane="westJunction_0" departPos="5.10" departSpeed="10.55" departDelay="0.35" arrival="122.00" arrivalLane="junctionEast_0" arrivalPos="492.80" arrivalSpeed="13.04" duration="92.00" routeLength="994.90" waitingTime="0.00" waitingCount="0" stopTime="0.00" timeLoss="19.96" rerouteNo="0" devices="tripinfo_westEastBottom0.2 ssm_westEastBottom0.2" vType="carCustom" speedFactor="1.08" vaporized=""/>
    <tripinfo id="westEastTop.4" depart="34.00" departLane="westJunction_1" departPos="5.10" departSpeed="11.18" departDelay="0.13" arrival="123.00" arrivalLane="junctionEast_1" arrivalPos="492.80" arrivalSpeed="12.88" duration="89.00" routeLength="994.90" waitingTime="0.00" waitingCount="0" stopTime="0.00" timeLoss="17.19" rerouteNo="0" devices="tripinfo_westEastTop.4 ssm_westEastTop.4" vType="carCustom" speedFactor="0.95" vaporized=""/>
    <tripinfo id="southEast.1" depart="37.00" departLane="southJunction_0" departPos="5.10" departSpeed="13.08" departDelay="0.30" arrival="130.00" arrivalLane="junctionEast_0" arrivalPos="492.80" arrivalSpeed="13.18" duration="93.00" routeLength="989.53" waitingTime="0.00" waitingCount="0" stopTime="0.00" timeLoss="21.27" rerouteNo="0" devices="tripinfo_southEast.1 ssm_southEast.1" vType="carCustom" speedFactor="0.90" vaporized=""/>
    <tripinfo id="westEastBottom0.3" depart="34.00" departLane="westJunction_0" departPos="5.10" departSpeed="9.92" departDelay="0.61" arrival="132.00" arrivalLane="junctionEast_1" arrivalPos="492.80" arrivalSpeed="13.17" duration="98.00" routeLength="994.90" waitingTime="0.00" waitingCount="0" stopTime="0.00" timeLoss="26.23" rerouteNo="0" devices="tripinfo_westEastBottom0.3 ssm_westEastBottom0.3" vType="carCustom" speedFactor="1.01" vaporized=""/>
    <tripinfo id="southEast.2" depart="45.00" departLane="southJunction_0" departPos="5.10" departSpeed="12.24" departDelay="0.63" arrival="139.00" arrivalLane="junctionEast_0" arrivalPos="492.80" arrivalSpeed="13.03" duration="94.00" routeLength="989.53" waitingTime="0.00" waitingCount="0" stopTime="0.00" timeLoss="21.92" rerouteNo="0" devices="tripinfo_southEast.2 ssm_southEast.2" vType="carCustom" speedFactor="1.23" vaporized=""/>
    <tripinfo id="westEastBottom0.4" depart="43.00" departLane="westJunction_0" departPos="5.10" departSpeed="8.02" departDelay="0.36" arrival="141.00" arrivalLane="junctionEast_1" arrivalPos="492.80" arrivalSpeed="13.18" duration="98.00" routeLength="994.90" waitingTime="0.00" waitingCount="0" stopTime="0.00" timeLoss="25.85" rerouteNo="0" devices="tripinfo_westEastBottom0.4 ssm_westEastBottom0.4" vType="carCustom" speedFactor="1.01" vaporized=""/>
    <tripinfo id="southNorth.3" depart="35.00" departLane="southJunction_1" departPos="5.10" departSpeed="9.68" departDelay="0.12" arrival="142.00" arrivalLane="junctionNorth_0" arrivalPos="492.80" arrivalSpeed="13.29" duration="107.00" routeLength="995.01" waitingTime="13.00" waitingCount="1" stopTime="0.00" timeLoss="34.70" rerouteNo="0" devices="tripinfo_southNorth.3 ssm_southNorth.3" vType="carCustom" speedFactor="0.99" vaporized=""/>
    <tripinfo id="southEast.3" depart="57.00" departLane="southJunction_0" departPos="5.10" departSpeed="11.58" departDelay="0.29" arrival="147.00" arrivalLane="junctionEast_0" arrivalPos="492.80" arrivalSpeed="12.93" duration="90.00" routeLength="989.53" waitingTime="0.00" waitingCount="0" stopTime="0.00" timeLoss="17.51" rerouteNo="0" devices="tripinfo_southEast.3 ssm_southEast.3" vType="carCustom" speedFactor="0.98" vaporized=""/>
    <tripinfo id="westEastTop.5" depart="40.00" departLane="westJunction_1" departPos="5.10" departSpeed="7.20" departDelay="0.38" arrival="149.00" arrivalLane="junctionEast_1" arrivalPos="492.80" arrivalSpeed="12.79" duration="109.00" routeLength="994.90" waitingTime="0.00" waitingCount="0" stopTime="0.00" timeLoss="37.34" rerouteNo="0" devices="tripinfo_westEastTop.5 ssm_westEastTop.5" vType="carCustom" speedFactor="1.19" vaporized=""/>
    <tripinfo id="westEastBottom0.10" depart="86.00" departLane="westJunction_0" departPos="5.10" departSpeed="9.04" departDelay="0.26" arrival="149.00" arrivalLane="junctionEast_0" arrivalPos="492.80" arrivalSpeed="6.05" duration="63.00" routeLength="994.90" waitingTime="0.00" waitingCount="0" stopTime="0.00" timeLoss="26.82" rerouteNo="0" devices="tripinfo_westEastBottom0.10 ssm_westEastBottom0.10" vType="carCustom" speedFactor="1.01" vaporized="teleport"/>
    <tripinfo id="southNorth.4" depart="37.00" departLane="southJunction_1" departPos="5.10" departSpeed="10.13" departDelay="1.78" arrival="152.00" arrivalLane="junctionNorth_0" arrivalPos="492.80" arrivalSpeed="13.58" duration="115.00" routeLength="995.01" waitingTime="5.00" waitingCount="2" stopTime="0.00" timeLoss="43.02" rerouteNo="0" devices="tripinfo_southNorth.4 ssm_southNorth.4" vType="carCustom" speedFactor="1.04" vaporized=""/>
    <tripinfo id="westEastBottom0.5" depart="45.00" departLane="westJunction_0" departPos="5.10" departSpeed="8.40" departDelay="1.20" arrival="156.00" arrivalLane="junctionEast_0" arrivalPos="492.80" arrivalSpeed="13.17" duration="111.00" routeLength="994.90" waitingTime="5.00" waitingCount="1" stopTime="0.00" timeLoss="37.90" rerouteNo="0" devices="tripinfo_westEastBottom0.5 ssm_westEastBottom0.5" vType="carCustom" speedFactor="1.01" vaporized=""/>
    <tripinfo id="westEastTop.6" depart="45.00" departLane="westJunction_1" departPos="5.10" departSpeed="7.62" departDelay="0.91" arrival="158.00" arrivalLane="junctionEast_1" arrivalPos="492.80" arrivalSpeed="13.35" duration="113.00" routeLength="994.90" waitingTime="0.00" waitingCount="0" stopTime="0.00" timeLoss="40.49" rerouteNo="0" devices="tripinfo_westEastTop.6 ssm_westEastTop.6" vType="carCustom" speedFactor="0.96" vaporized=""/>
    <tripinfo id="southNorth.5" depart="49.00" departLane="southJunction_1" departPos="5.10" departSpeed="8.14" departDelay="0.95" arrival="163.00" arrivalLane="junctionNorth_0" arrivalPos="492.80" arrivalSpeed="13.81" duration="114.00" routeLength="995.01" waitingTime="5.00" waitingCount="1" stopTime="0.00" timeLoss="42.23" rerouteNo="0" devices="tripinfo_southNorth.5 ssm_southNorth.5" vType="carCustom" speedFactor="0.86" vaporized=""/>
    <tripinfo id="southEast.4" depart="59.00" departLane="southJunction_0" departPos="5.10" departSpeed="12.64" departDelay="1.62" arrival="164.00" arrivalLane="junctionEast_0" arrivalPos="492.80" arrivalSpeed="13.12" duration="105.00" routeLength="989.53" waitingTime="0.00" waitingCount="0" stopTime="0.00" timeLoss="32.24" rerouteNo="0" devices="tripinfo_southEast.4 ssm_southEast.4" vType="carCustom" speedFactor="0.98" vaporized=""/>
    <tripinfo id="westEastTop.7" depart="55.00" departLane="westJunction_1" departPos="5.10" departSpeed="7.31" departDelay="0.48" arrival="165.00" arrivalLane="junctionEast_1" arrivalPos="492.80" arrivalSpeed="12.87" duration="110.00" routeLength="994.90" waitingTime="0.00" waitingCount="0" stopTime="0.00" timeLoss="38.32" rerouteNo="0" devices="tripinfo_westEastTop.7 ssm_westEastTop.7" vType="carCustom" speedFactor="1.05" vaporized=""/>
    <tripinfo id="westEastBottom0.6" depart="55.00" departLane="westJunction_0" departPos="5.10" departSpeed="6.39" departDelay="0.97" arrival="172.00" arrivalLane="junctionEast_0" arrivalPos="492.80" arrivalSpeed="12.89" duration="117.00" routeLength="994.90" waitingTime="0.00" waitingCount="0" stopTime="0.00" timeLoss="44.72" rerouteNo="0" devices="tripinfo_westEastBottom0.6 ssm_westEastBottom0.6" vType="carCustom" speedFactor="0.93" vaporized=""/>
    <tripinfo id="southNorth.6" depart="51.00" departLane="southJunction_1" departPos="5.10" departSpeed="9.53" departDelay="1.79" arrival="173.00" arrivalLane="junctionNorth_0" arrivalPos="492.80" arrivalSpeed="12.79" duration="122.00" routeLength="995.01" waitingTime="3.00" waitingCount="1" stopTime="0.00" timeLoss="49.77" rerouteNo="0" devices="tripinfo_southNorth.6 ssm_southNorth.6" vType="carCustom" speedFactor="0.89" vaporized=""/>
    <tripinfo id="westEastTop.8" depart="62.00" departLane="westJunction_1" departPos="5.10" departSpeed="7.90" departDelay="0.39" arrival="173.00" arrivalLane="junctionEast_1" arrivalPos="492.80" arrivalSpeed="13.16" duration="111.00" routeLength="994.90" waitingTime="0.00" waitingCount="0" stopTime="0.00" timeLoss="39.18" rerouteNo="0" devices="tripinfo_westEastTop.8 ssm_westEastTop.8" vType="carCustom" speedFactor="0.97" vaporized=""/>
    <tripinfo id="southEast.10" depart="123.00" departLane="southJunction_0" departPos="5.10" departSpeed="9.15" departDelay="0.44" arrival="175.00" arrivalLane="junctionEast_0" arrivalPos="492.80" arrivalSpeed="6.08" duration="52.00" routeLength="989.53" waitingTime="0.00" waitingCount="0" stopTime="0.00" timeLoss="15.59" rerouteNo="0" devices="tripinfo_southEast.10 ssm_southEast.10" vType="carCustom" speedFactor="1.05" vaporized="teleport"/>
    <tripinfo id="southEast.5" depart="82.00" departLane="southJunction_0" departPos="5.10" departSpeed="10.61" departDelay="0.17" arrival="180.00" arrivalLane="junctionEast_0" arrivalPos="492.80" arrivalSpeed="13.27" duration="98.00" routeLength="989.53" waitingTime="0.00" waitingCount="0" stopTime="0.00" timeLoss="25.37" rerouteNo="0" devices="tripinfo_southEast.5 ssm_southEast.5" vType="carCustom" speedFactor="0.80" vaporized=""/>
    <tripinfo id="westEastTop.9" depart="65.00" departLane="westJunction_1" departPos="5.10" departSpeed="7.79" departDelay="2.14" arrival="181.00" arrivalLane="junctionEast_1" arrivalPos="492.80" arrivalSpeed="13.84" duration="116.00" routeLength="994.90" waitingTime="0.00" waitingCount="0" stopTime="0.00" timeLoss="44.16" rerouteNo="0" devices="tripinfo_westEastTop.9 ssm_westEastTop.9" vType="carCustom" speedFactor="1.05" vaporized=""/>
    <tripinfo id="westEastBottom0.7" depart="61.00" departLane="westJunction_0" departPos="5.10" departSpeed="7.13" departDelay="0.98" arrival="187.00" arrivalLane="junctionEast_0" arrivalPos="492.80" arrivalSpeed="13.82" duration="126.00" routeLength="994.90" waitingTime="3.00" waitingCount="1" stopTime="0.00" timeLoss="54.30" rerouteNo="0" devices="tripinfo_westEastBottom0.7 ssm_westEastBottom0.7" vType="carCustom" speedFactor="1.06" vaporized=""/>
    <tripinfo id="westEastBottom0.8" depart="76.00" departLane="westJunction_0" departPos="5.10" departSpeed="7.19" departDelay="0.83" arrival="189.00" arrivalLane="junctionEast_1" arrivalPos="492.80" arrivalSpeed="13.71" duration="113.00" routeLength="994.90" waitingTime="0.00" waitingCount="0" stopTime="0.00" timeLoss="41.05" rerouteNo="0" devices="tripinfo_westEastBottom0.8 ssm_westEastBottom0.8" vType="carCustom" speedFactor="0.97" vaporized=""/>
    <tripinfo id="southNorth.7" depart="53.00" departLane="southJunction_1" departPos="5.10" departSpeed="6.72" departDelay="3.20" arrival="193.00" arrivalLane="junctionNorth_0" arrivalPos="492.80" arrivalSpeed="12.80" duration="140.00" routeLength="995.01" waitingTime="19.00" waitingCount="1" stopTime="0.00" timeLoss="67.55" rerouteNo="0" devices="tripinfo_southNorth.7 ssm_southNorth.7" vType="carCustom" speedFactor="1.00" vaporized=""/>
    <tripinfo id="southEast.6" depart="87.00" departLane="southJunction_0" departPos="5.10" departSpeed="13.19" departDelay="0.04" arrival="195.00" arrivalLane="junctionEast_0" arrivalPos="492.80" arrivalSpeed="13.19" duration="108.00" routeLength="989.53" waitingTime="0.00" waitingCount="0" stopTime="0.00" timeLoss="35.57" rerouteNo="0" devices="tripinfo_southEast.6 ssm_southEast.6" vType="carCustom" speedFactor="1.05" vaporized=""/>
    <tripinfo id="westEastTop.10" depart="74.00" departLane="westJunction_1" departPos="5.10" departSpeed="6.34" departDelay="0.70" arrival="197.00" arrivalLane="junctionEast_0" arrivalPos="492.80" arrivalSpeed="13.33" duration="123.00" routeLength="994.90" waitingTime="0.00" waitingCount="0" stopTime="0.00" timeLoss="51.04" rerouteNo="0" devices="tripinfo_westEastTop.10 ssm_westEastTop.10" vType="carCustom" speedFactor="1.08" vaporized=""/>
    <tripinfo id="westEastBottom0.9" depart="82.00" departLane="westJunction_0" departPos="5.10" departSpeed="10.85" departDelay="0.88" arrival="202.00" arrivalLane="junctionEast_0" arrivalPos="492.80" arrivalSpeed="13.59" duration="120.00" routeLength="994.90" waitingTime="0.00" waitingCount="0" stopTime="0.00" timeLoss="48.32" rerouteNo="0" devices="tripinfo_westEastBottom0.9 ssm_westEastBottom0.9" vType="carCustom" speedFactor="0.89" vaporized=""/>
    <tripinfo id="westEastTop.11" depart="77.00" departLane="westJunction_1" departPos="5.10" departSpeed="6.61" departDelay="1.09" arrival="205.00" arrivalLane="junctionEast_1" arrivalPos="492.80" arrivalSpeed="13.08" duration="128.00" routeLength="994.90" waitingTime="0.00" waitingCount="0" stopTime="0.00" timeLoss="55.51" rerouteNo="0" devices="tripinfo_westEastTop.11 ssm_westEastTop.11" vType="carCustom" speedFactor="1.02" vaporized=""/>
    <tripinfo id="southNorth.8" depart="56.00" departLane="southJunction_1" departPos="5.10" departSpeed="3.17" departDelay="6.03" arrival="208.00" arrivalLane="junctionNorth_0" arrivalPos="492.80" arrivalSpeed="13.38" duration="152.00" routeLength="995.01" waitingTime="23.00" waitingCount="2" stopTime="0.00" timeLoss="79.76" rerouteNo="0" devices="tripinfo_southNorth.8 ssm_southNorth.8" vType="carCustom" speedFactor="0.96" vaporized=""/>
    <tripinfo id="southEast.7" depart="95.00" departLane="southJunction_0" departPos="5.10" departSpeed="9.95" departDelay="0.17" arrival="210.00" arrivalLane="junctionEast_0" arrivalPos="492.80" arrivalSpeed="12.95" duration="115.00" routeLength="989.53" waitingTime="0.00" waitingCount="0" stopTime="0.00" timeLoss="42.54" rerouteNo="0" devices="tripinfo_southEast.7 ssm_southEast.7" vType="carCustom" speedFactor="0.95" vaporized=""/>
    <tripinfo id="westEastTop.12" depart="80.00" departLane="westJunction_1" departPos="5.10" departSpeed="3.80" departDelay="2.12" arrival="212.00" arrivalLane="junctionEast_1" arrivalPos="492.80" arrivalSpeed="13.77" duration="132.00" routeLength="994.90" waitingTime="0.00" waitingCount="0" stopTime="0.00" timeLoss="60.15" rerouteNo="0" devices="tripinfo_westEastTop.12 ssm_westEastTop.12" vType="carCustom" speedFactor="0.87" vaporized=""/>
    <tripinfo id="southEast.12" depart="174.00" departLane="southJunction_0" departPos="5.10" departSpeed="8.56" departDelay="0.49" arrival="216.00" arrivalLane="junctionEast_0" arrivalPos="492.80" arrivalSpeed="4.46" duration="42.00" routeLength="989.53" waitingTime="0.00" waitingCount="0" stopTime="0.00" timeLoss="5.01" rerouteNo="0" devices="tripinfo_southEast.12 ssm_southEast.12" vType="carCustom" speedFactor="0.99" vaporized="teleport"/>
    <tripinfo id="southEast.8" depart="109.00" departLane="southJunction_0" departPos="5.10" departSpeed="11.16" departDelay="0.38" arrival="217.00" arrivalLane="junctionEast_0" arrivalPos="492.80" arrivalSpeed="12.66" duration="108.00" routeLength="989.53" waitingTime="0.00" waitingCount="0" stopTime="0.00" timeLoss="35.61" rerouteNo="0" devices="tripinfo_southEast.8 ssm_southEast.8" vType="carCustom" speedFactor="0.96" vaporized=""/>
    <tripinfo id="westEastTop.13" depart="84.00" departLane="westJunction_1" departPos="5.10" departSpeed="3.70" departDelay="3.30" arrival="220.00" arrivalLane="junctionEast_1" arrivalPos="492.80" arrivalSpeed="13.45" duration="136.00" routeLength="994.90" waitingTime="0.00" waitingCount="0" stopTime="0.00" timeLoss="63.88" rerouteNo="0" devices="tripinfo_westEastTop.13 ssm_westEastTop.13" vType="carCustom" speedFactor="0.96" vaporized=""/>
    <tripinfo id="westEastBottom0.11" depart="94.00" departLane="westJunction_0" departPos="5.10" departSpeed="7.35" departDelay="0.76" arrival="224.00" arrivalLane="junctionEast_0" arrivalPos="492.80" arrivalSpeed="13.29" duration="130.00" routeLength="994.90" waitingTime="0.00" waitingCount="0" stopTime="0.00" timeLoss="58.15" rerouteNo="0" devices="tripinfo_westEastBottom0.11 ssm_westEastBottom0.11" vType="carCustom" speedFactor="1.09" vaporized=""/>
    <tripinfo id="southNorth.9" depart="61.00" departLane="southJunction_1" departPos="5.10" departSpeed="2.63" departDelay="7.48" arrival="227.00" arrivalLane="junctionNorth_0" arrivalPos="492.80" arrivalSpeed="13.43" duration="166.00" routeLength="995.01" waitingTime="28.00" waitingCount="3" stopTime="0.00" timeLoss="94.30" rerouteNo="0" devices="tripinfo_southNorth.9 ssm_southNorth.9" vType="carCustom" speedFactor="1.15" vaporized=""/>
    <tripinfo id="westEastBottom0.12" depart="106.00" departLane="westJunction_0" departPos="5.10" departSpeed="8.31" departDelay="0.70" arrival="227.00" arrivalLane="junctionEast_0" arrivalPos="492.80" arrivalSpeed="12.63" duration="121.00" routeLength="994.90" waitingTime="0.00" waitingCount="0" stopTime="0.00" timeLoss="49.26" rerouteNo="0" devices="tripinfo_westEastBottom0.12 ssm_westEastBottom0.12" vType="carCustom" speedFactor="0.99" vaporized=""/>
    <tripinfo id="southEast.9" depart="111.00" departLane="southJunction_0" departPos="5.10" departSpeed="12.99" departDelay="0.85" arrival="232.00" arrivalLane="junctionEast_0" arrivalPos="492.80" arrivalSpeed="12.88" duration="121.00" routeLength="989.53" waitingTime="0.00" waitingCount="0" stopTime="0.00" timeLoss="48.18" rerouteNo="0" devices="tripinfo_southEast.9 ssm_southEast.9" vType="carCustom" speedFactor="0.93" vaporized=""/>
    <tripinfo id="westEastTop.14" depart="98.00" departLane="westJunction_1" departPos="5.10" departSpeed="5.38" departDelay="0.75" arrival="235.00" arrivalLane="junctionEast_1" arrivalPos="492.80" arrivalSpeed="12.89" duration="137.00" routeLength="994.90" waitingTime="0.00" waitingCount="0" stopTime="0.00" timeLoss="64.63" rerouteNo="0" devices="tripinfo_westEastTop.14 ssm_westEastTop.14" vType="carCustom" speedFactor="0.96" vaporized=""/>
    <tripinfo id="westEastBottom0.13" depart="113.00" departLane="westJunction_0" departPos="5.10" departSpeed="9.76" departDelay="0.77" arrival="239.00" arrivalLane="junctionEast_0" arrivalPos="492.80" arrivalSpeed="13.48" duration="126.00" routeLength="994.90" waitingTime="0.00" waitingCount="0" stopTime="0.00" timeLoss="53.61" rerouteNo="0" devices="tripinfo_westEastBottom0.13 ssm_westEastBottom0.13" vType="carCustom" speedFactor="1.01" vaporized=""/>
    <tripinfo id="westEastTop.15" depart="101.00" departLane="westJunction_1" departPos="5.10" departSpeed="6.63" departDelay="1.32" arrival="242.00" arrivalLane="junctionEast_0" arrivalPos="492.80" arrivalSpeed="12.89" duration="141.00" routeLength="994.90" waitingTime="0.00" waitingCount="0" stopTime="0.00" timeLoss="69.03" rerouteNo="0" devices="tripinfo_westEastTop.15 ssm_westEastTop.15" vType="carCustom" speedFactor="0.97" vaporized=""/>
    <tripinfo id="westEastBottom0.14" depart="122.00" departLane="westJunction_0" departPos="5.10" departSpeed="8.82" departDelay="0.97" arrival="247.00" arrivalLane="junctionEast_0" arrivalPos="492.80" arrivalSpeed="13.62" duration="125.00" routeLength="994.90" waitingTime="0.00" waitingCount="0" stopTime="0.00" timeLoss="52.76" rerouteNo="0" devices="tripinfo_westEastBottom0.14 ssm_westEastBottom0.14" vType="carCustom" speedFactor="1.12" vaporized=""/>
    <tripinfo id="westEastTop.16" depart="105.00" departLane="westJunction_1" departPos="5.10" departSpeed="4.88" departDelay="0.35" arrival="249.00" arrivalLane="junctionEast_1" arrivalPos="492.80" arrivalSpeed="13.81" duration="144.00" routeLength="994.90" waitingTime="0.00" waitingCount="0" stopTime="0.00" timeLoss="71.63" rerouteNo="0" devices="tripinfo_westEastTop.16 ssm_westEastTop.16" vType="carCustom" speedFactor="0.96" vaporized=""/>
    <tripinfo id="southNorth.10" depart="66.00" departLane="southJunction_1" departPos="5.10" departSpeed="3.32" departDelay="3.83" arrival="250.00" arrivalLane="junctionNorth_0" arrivalPos="492.80" arrivalSpeed="13.44" duration="184.00" routeLength="995.01" waitingTime="33.00" waitingCount="4" stopTime="0.00" timeLoss="111.46" rerouteNo="0" devices="tripinfo_southNorth.10 ssm_southNorth.10" vType="carCustom" speedFactor="1.01" vaporized=""/>
    <tripinfo id="southEast.11" depart="131.00" departLane="southJunction_0" departPos="5.10" departSpeed="11.27" departDelay="0.76" arrival="253.00" arrivalLane="junctionEast_0" arrivalPos="492.80" arrivalSpeed="13.58" duration="122.00" routeLength="989.53" waitingTime="0.00" waitingCount="0" stopTime="0.00" timeLoss="49.79" rerouteNo="0" devices="tripinfo_southEast.11 ssm_southEast.11" vType="carCustom" speedFactor="0.99" vaporized=""/>
    <tripinfo id="westEastTop.17" depart="111.00" departLane="westJunction_1" departPos="5.10" departSpeed="3.54" departDelay="0.86" arrival="256.00" arrivalLane="junctionEast_1" arrivalPos="492.80" arrivalSpeed="12.89" duration="145.00" routeLength="994.90" waitingTime="0.00" waitingCount="0" stopTime="0.00" timeLoss="73.06" rerouteNo="0" devices="tripinfo_westEastTop.17 ssm_westEastTop.17" vType="carCustom" speedFactor="1.11" vaporized=""/>
    <tripinfo id="westEastBottom0.15" depart="146.00" departLane="westJunction_0" departPos="5.10" departSpeed="9.20" departDelay="0.66" arrival="260.00" arrivalLane="junctionEast_0" arrivalPos="492.80" arrivalSpeed="13.62" duration="114.00" routeLength="994.90" waitingTime="0.00" waitingCount="0" stopTime="0.00" timeLoss="41.84" rerouteNo="0" devices="tripinfo_westEastBottom0.15 ssm_westEastBottom0.15" vType="carCustom" speedFactor="1.09" vaporized=""/>
    <tripinfo id="westEastTop.18" depart="120.00" departLane="westJunction_1" departPos="5.10" departSpeed="4.17" departDelay="0.05" arrival="263.00" arrivalLane="junctionEast_0" arrivalPos="492.80" arrivalSpeed="13.13" duration="143.00" routeLength="994.90" waitingTime="0.00" waitingCount="0" stopTime="0.00" timeLoss="71.17" rerouteNo="0" devices="tripinfo_westEastTop.18 ssm_westEastTop.18" vType="carCustom" speedFactor="0.97" vaporized=""/>
    <tripinfo id="southNorth.11" depart="82.00" departLane="southJunction_1" departPos="5.10" departSpeed="5.16" departDelay="0.13" arrival="264.00" arrivalLane="junctionNorth_0" arrivalPos="492.80" arrivalSpeed="13.34" duration="182.00" routeLength="995.01" waitingTime="35.00" waitingCount="4" stopTime="0.00" timeLoss="110.08" rerouteNo="0" devices="tripinfo_southNorth.11 ssm_southNorth.11" vType="carCustom" speedFactor="1.04" vaporized=""/>
    <tripinfo id="westEastBottom0.16" depart="160.00" departLane="westJunction_0" departPos="5.10" departSpeed="13.36" departDelay="0.78" arrival="268.00" arrivalLane="junctionEast_0" arrivalPos="492.80" arrivalSpeed="12.88" duration="108.00" routeLength="994.90" waitingTime="0.00" waitingCount="0" stopTime="0.00" timeLoss="35.97" rerouteNo="0" devices="tripinfo_westEastBottom0.16 ssm_westEastBottom0.16" vType="carCustom" speedFactor="1.03" vaporized=""/>
    <tripinfo id="westEastTop.19" depart="123.00" departLane="westJunction_1" departPos="5.10" departSpeed="4.90" departDelay="1.50" arrival="270.00" arrivalLane="junctionEast_1" arrivalPos="492.80" arrivalSpeed="13.52" duration="147.00" routeLength="994.90" waitingTime="0.00" waitingCount="0" stopTime="0.00" timeLoss="74.62" rerouteNo="0" devices="tripinfo_westEastTop.19 ssm_westEastTop.19" vType="carCustom" speedFactor="1.24" vaporized=""/>
    <tripinfo id="southNorth.12" depart="113.00" departLane="southJunction_1" departPos="5.10" departSpeed="6.93" departDelay="0.82" arrival="274.00" arrivalLane="junctionNorth_0" arrivalPos="492.80" arrivalSpeed="13.62" duration="161.00" routeLength="995.01" waitingTime="26.00" waitingCount="4" stopTime="0.00" timeLoss="88.54" rerouteNo="0" devices="tripinfo_southNorth.12 ssm_southNorth.12" vType="carCustom" speedFactor="0.79" vaporized=""/>