<?xml version="1.0" encoding="UTF-8"?>

<!-- generated on 2025-04-29 07:51:33 by Eclipse SUMO sumo Version 1.20.0
<configuration xmlns:xsi="http://www.w3.org/2001/XMLSchema-instance" xsi:noNamespaceSchemaLocation="http://sumo.dlr.de/xsd/sumoConfiguration.xsd">

    <input>
        <net-file value="nets/2lane_unprotected_right/2lane_unprotected_right.net.xml"/>
        <route-files value="nets/2lane_unprotected_right/2lane_unprotected_right.rou.xml"/>
    </input>

    <output>
        <tripinfo-output value="traces/transs50f1_s50_f0.5_random/0128_tripinfo.xml"/>
        <collision-output value="traces/transs50f1_s50_f0.5_random/0128_collisions.xml"/>
        <statistic-output value="traces/transs50f1_s50_f0.5_random/0128_statistics.xml"/>
    </output>

    <processing>
        <collision.action value="teleport"/>
        <collision.check-junctions value="true"/>
        <time-to-teleport value="-1"/>
        <waiting-time-memory value="1000"/>
        <max-depart-delay value="-1"/>
        <default.speeddev value="0.1"/>
    </processing>

    <report>
        <no-warnings value="true"/>
    </report>

    <ssm_device>
        <device.ssm.probability value="1.0"/>
        <device.ssm.measures value="BR"/>
        <device.ssm.file value="/Users/finn/Code/CausalKnowledgeTransfer-4-SafeRL/traces/transs50f1_s50_f0.5_random/0128_ssm.xml"/>
    </ssm_device>

    <traci_server>
        <remote-port value="63993"/>
    </traci_server>

    <random_number>
        <random value="true"/>
    </random_number>

</configuration>
-->

<tripinfos xmlns:xsi="http://www.w3.org/2001/XMLSchema-instance" xsi:noNamespaceSchemaLocation="http://sumo.dlr.de/xsd/tripinfo_file.xsd">
    <tripinfo id="southEast.3" depart="32.00" departLane="southJunction_0" departPos="5.10" departSpeed="3.06" departDelay="3.71" arrival="129.00" arrivalLane="junctionEast_0" arrivalPos="492.80" arrivalSpeed="5.32" duration="97.00" routeLength="989.53" waitingTime="2.00" waitingCount="1" stopTime="0.00" timeLoss="36.73" rerouteNo="0" devices="tripinfo_southEast.3 ssm_southEast.3" vType="carCustom" speedFactor="0.92" vaporized="teleport"/>
    <tripinfo id="westEastBottom0.0" depart="5.00" departLane="westJunction_0" departPos="5.10" departSpeed="8.33" departDelay="0.19" arrival="134.00" arrivalLane="junctionEast_0" arrivalPos="492.80" arrivalSpeed="7.63" duration="129.00" routeLength="994.90" waitingTime="0.00" waitingCount="0" stopTime="0.00" timeLoss="9.00" rerouteNo="0" devices="tripinfo_westEastBottom0.0 ssm_westEastBottom0.0" vType="carCustom" speedFactor="1.00" vaporized=""/>
    <tripinfo id="westEastTop.0" depart="7.00" departLane="westJunction_1" departPos="5.10" departSpeed="8.33" departDelay="0.74" arrival="145.00" arrivalLane="junctionEast_0" arrivalPos="492.80" arrivalSpeed="8.32" duration="138.00" routeLength="994.90" waitingTime="5.00" waitingCount="1" stopTime="0.00" timeLoss="17.04" rerouteNo="0" devices="tripinfo_westEastTop.0 ssm_westEastTop.0" vType="carCustom" speedFactor="0.85" vaporized=""/>
    <tripinfo id="southNorth.0" depart="17.00" departLane="southJunction_1" departPos="5.10" departSpeed="8.33" departDelay="0.68" arrival="153.00" arrivalLane="junctionNorth_0" arrivalPos="492.80" arrivalSpeed="7.84" duration="136.00" routeLength="995.01" waitingTime="2.00" waitingCount="1" stopTime="0.00" timeLoss="16.17" rerouteNo="0" devices="tripinfo_southNorth.0 ssm_southNorth.0" vType="carCustom" speedFactor="1.03" vaporized=""/>
    <tripinfo id="southEast.6" depart="72.00" departLane="southJunction_0" departPos="5.10" departSpeed="6.26" departDelay="0.80" arrival="153.00" arrivalLane="junctionEast_0" arrivalPos="492.80" arrivalSpeed="3.92" duration="81.00" routeLength="989.53" waitingTime="0.00" waitingCount="0" stopTime="0.00" timeLoss="20.88" rerouteNo="0" devices="tripinfo_southEast.6 ssm_southEast.6" vType="carCustom" speedFactor="1.02" vaporized="teleport"/>
    <tripinfo id="westEastTop.1" depart="14.00" departLane="westJunction_1" departPos="5.10" departSpeed="8.04" departDelay="0.21" arrival="155.00" arrivalLane="junctionEast_0" arrivalPos="492.80" arrivalSpeed="7.44" duration="141.00" routeLength="994.90" waitingTime="0.00" waitingCount="0" stopTime="0.00" timeLoss="21.29" rerouteNo="0" devices="tripinfo_westEastTop.1 ssm_westEastTop.1" vType="carCustom" speedFactor="1.11" vaporized=""/>
    <tripinfo id="westEastBottom0.1" depart="17.00" departLane="westJunction_0" departPos="5.10" departSpeed="7.39" departDelay="0.33" arrival="163.00" arrivalLane="junctionEast_0" arrivalPos="492.80" arrivalSpeed="8.24" duration="146.00" routeLength="994.90" waitingTime="0.00" waitingCount="0" stopTime="0.00" timeLoss="26.20" rerouteNo="0" devices="tripinfo_westEastBottom0.1 ssm_westEastBottom0.1" vType="carCustom" speedFactor="1.09" vaporized=""/>
    <tripinfo id="westEastBottom0.3" depart="25.00" departLane="westJunction_0" departPos="5.10" departSpeed="5.04" departDelay="0.48" arrival="163.00" arrivalLane="junctionEast_1" arrivalPos="492.80" arrivalSpeed="7.29" duration="138.00" routeLength="994.90" waitingTime="0.00" waitingCount="0" stopTime="0.00" timeLoss="18.55" rerouteNo="0" devices="tripinfo_westEastBottom0.3 ssm_westEastBottom0.3" vType="carCustom" speedFactor="1.06" vaporized=""/>
    <tripinfo id="southNorth.1" depart="23.00" departLane="southJunction_1" departPos="5.10" departSpeed="7.93" departDelay="0.22" arrival="169.00" arrivalLane="junctionNorth_0" arrivalPos="492.80" arrivalSpeed="7.70" duration="146.00" routeLength="995.01" waitingTime="3.00" waitingCount="1" stopTime="0.00" timeLoss="26.37" rerouteNo="0" devices="tripinfo_southNorth.1 ssm_southNorth.1" vType="carCustom" speedFactor="1.03" vaporized=""/>
    <tripinfo id="southEast.0" depart="23.00" departLane="southJunction_0" departPos="5.10" departSpeed="8.33" departDelay="0.32" arrival="173.00" arrivalLane="junctionEast_0" arrivalPos="492.80" arrivalSpeed="8.03" duration="150.00" routeLength="989.53" waitingTime="0.00" waitingCount="0" stopTime="0.00" timeLoss="30.32" rerouteNo="0" devices="tripinfo_southEast.0 ssm_southEast.0" vType="carCustom" speedFactor="1.25" vaporized=""/>
    <tripinfo id="westEastBottom0.2" depart="21.00" departLane="westJunction_0" departPos="5.10" departSpeed="7.88" departDelay="0.43" arrival="180.00" arrivalLane="junctionEast_1" arrivalPos="492.80" arrivalSpeed="8.16" duration="159.00" routeLength="994.90" waitingTime="0.00" waitingCount="0" stopTime="0.00" timeLoss="39.50" rerouteNo="0" devices="tripinfo_westEastBottom0.2 ssm_westEastBottom0.2" vType="carCustom" speedFactor="1.11" vaporized=""/>
    <tripinfo id="southEast.1" depart="26.00" departLane="southJunction_0" departPos="5.10" departSpeed="7.96" departDelay="0.04" arrival="181.00" arrivalLane="junctionEast_0" arrivalPos="492.80" arrivalSpeed="7.80" duration="155.00" routeLength="989.53" waitingTime="0.00" waitingCount="0" stopTime="0.00" timeLoss="34.85" rerouteNo="0" devices="tripinfo_southEast.1 ssm_southEast.1" vType="carCustom" speedFactor="0.84" vaporized=""/>
    <tripinfo id="southNorth.2" depart="26.00" departLane="southJunction_1" departPos="5.10" departSpeed="6.03" departDelay="0.87" arrival="184.00" arrivalLane="junctionNorth_0" arrivalPos="492.80" arrivalSpeed="7.43" duration="158.00" routeLength="995.01" waitingTime="5.00" waitingCount="1" stopTime="0.00" timeLoss="37.75" rerouteNo="0" devices="tripinfo_southNorth.2 ssm_southNorth.2" vType="carCustom" speedFactor="1.05" vaporized=""/>
    <tripinfo id="westEastBottom0.4" depart="29.00" departLane="westJunction_0" departPos="5.10" departSpeed="5.10" departDelay="0.29" arrival="190.00" arrivalLane="junctionEast_0" arrivalPos="492.80" arrivalSpeed="8.28" duration="161.00" routeLength="994.90" waitingTime="3.00" waitingCount="1" stopTime="0.00" timeLoss="40.37" rerouteNo="0" devices="tripinfo_westEastBottom0.4 ssm_westEastBottom0.4" vType="carCustom" speedFactor="0.93" vaporized=""/>
    <tripinfo id="westEastBottom0.5" depart="36.00" departLane="westJunction_0" departPos="5.10" departSpeed="5.49" departDelay="0.54" arrival="191.00" arrivalLane="junctionEast_1" arrivalPos="492.80" arrivalSpeed="7.55" duration="155.00" routeLength="994.90" waitingTime="0.00" waitingCount="0" stopTime="0.00" timeLoss="34.75" rerouteNo="0" devices="tripinfo_westEastBottom0.5 ssm_westEastBottom0.5" vType="carCustom" speedFactor="1.11" vaporized=""/>
    <tripinfo id="westEastTop.2" depart="28.00" departLane="westJunction_1" departPos="5.10" departSpeed="5.92" departDelay="0.16" arrival="200.00" arrivalLane="junctionEast_1" arrivalPos="492.80" arrivalSpeed="7.51" duration="172.00" routeLength="994.90" waitingTime="0.00" waitingCount="0" stopTime="0.00" timeLoss="52.52" rerouteNo="0" devices="tripinfo_westEastTop.2 ssm_westEastTop.2" vType="carCustom" speedFactor="1.01" vaporized=""/>
    <tripinfo id="westEastBottom0.6" depart="60.00" departLane="westJunction_0" departPos="5.10" departSpeed="6.02" departDelay="0.85" arrival="200.00" arrivalLane="junctionEast_0" arrivalPos="492.80" arrivalSpeed="7.59" duration="140.00" routeLength="994.90" waitingTime="0.00" waitingCount="0" stopTime="0.00" timeLoss="20.13" rerouteNo="0" devices="tripinfo_westEastBottom0.6 ssm_westEastBottom0.6" vType="carCustom" speedFactor="0.83" vaporized=""/>
    <tripinfo id="westEastBottom0.13" depart="112.00" departLane="westJunction_0" departPos="5.10" departSpeed="3.68" departDelay="0.69" arrival="206.00" arrivalLane="junctionEast_0" arrivalPos="492.80" arrivalSpeed="3.73" duration="94.00" routeLength="994.90" waitingTime="0.00" waitingCount="0" stopTime="0.00" timeLoss="33.70" rerouteNo="0" devices="tripinfo_westEastBottom0.13 ssm_westEastBottom0.13" vType="carCustom" speedFactor="0.91" vaporized="teleport"/>
    <tripinfo id="southNorth.3" depart="52.00" departLane="southJunction_1" departPos="5.10" departSpeed="5.22" departDelay="0.52" arrival="207.00" arrivalLane="junctionNorth_0" arrivalPos="492.80" arrivalSpeed="7.86" duration="155.00" routeLength="995.01" waitingTime="12.00" waitingCount="1" stopTime="0.00" timeLoss="35.18" rerouteNo="0" devices="tripinfo_southNorth.3 ssm_southNorth.3" vType="carCustom" speedFactor="0.91" vaporized=""/>
    <tripinfo id="southEast.2" depart="29.00" departLane="southJunction_0" departPos="5.10" departSpeed="5.35" departDelay="1.59" arrival="209.00" arrivalLane="junctionEast_0" arrivalPos="492.80" arrivalSpeed="7.97" duration="180.00" routeLength="989.53" waitingTime="0.00" waitingCount="0" stopTime="0.00" timeLoss="60.44" rerouteNo="0" devices="tripinfo_southEast.2 ssm_southEast.2" vType="carCustom" speedFactor="0.89" vaporized=""/>
    <tripinfo id="southEast.4" depart="34.00" departLane="southJunction_0" departPos="5.10" departSpeed="2.56" departDelay="0.70" arrival="210.00" arrivalLane="junctionEast_1" arrivalPos="492.80" arrivalSpeed="7.94" duration="176.00" routeLength="989.53" waitingTime="0.00" waitingCount="0" stopTime="0.00" timeLoss="56.90" rerouteNo="0" devices="tripinfo_southEast.4 ssm_southEast.4" vType="carCustom" speedFactor="1.11" vaporized=""/>
    <tripinfo id="westEastBottom0.14" depart="119.00" departLane="westJunction_0" departPos="5.10" departSpeed="3.19" departDelay="0.11" arrival="215.00" arrivalLane="junctionEast_0" arrivalPos="492.80" arrivalSpeed="5.06" duration="96.00" routeLength="994.90" waitingTime="0.00" waitingCount="0" stopTime="0.00" timeLoss="35.68" rerouteNo="0" devices="tripinfo_westEastBottom0.14 ssm_westEastBottom0.14" vType="carCustom" speedFactor="0.94" vaporized="teleport"/>
    <tripinfo id="westEastTop.3" depart="52.00" departLane="westJunction_1" departPos="5.10" departSpeed="6.32" departDelay="0.12" arrival="219.00" arrivalLane="junctionEast_0" arrivalPos="492.80" arrivalSpeed="8.28" duration="167.00" routeLength="994.90" waitingTime="4.00" waitingCount="1" stopTime="0.00" timeLoss="46.74" rerouteNo="0" devices="tripinfo_westEastTop.3 ssm_westEastTop.3" vType="carCustom" speedFactor="1.13" vaporized=""/>
    <tripinfo id="southEast.5" depart="56.00" departLane="southJunction_0" departPos="5.10" departSpeed="4.67" departDelay="0.88" arrival="220.00" arrivalLane="junctionEast_1" arrivalPos="492.80" arrivalSpeed="8.09" duration="164.00" routeLength="989.53" waitingTime="0.00" waitingCount="0" stopTime="0.00" timeLoss="44.31" rerouteNo="0" devices="tripinfo_southEast.5 ssm_southEast.5" vType="carCustom" speedFactor="0.99" vaporized=""/>
    <tripinfo id="southNorth.4" depart="55.00" departLane="southJunction_1" departPos="5.10" departSpeed="7.19" departDelay="0.25" arrival="222.00" arrivalLane="junctionNorth_0" arrivalPos="492.80" arrivalSpeed="7.64" duration="167.00" routeLength="995.01" waitingTime="8.00" waitingCount="1" stopTime="0.00" timeLoss="47.29" rerouteNo="0" devices="tripinfo_southNorth.4 ssm_southNorth.4" vType="carCustom" speedFactor="1.01" vaporized=""/>
    <tripinfo id="westEastBottom0.15" depart="124.00" departLane="westJunction_0" departPos="5.10" departSpeed="2.98" departDelay="1.86" arrival="225.00" arrivalLane="junctionEast_0" arrivalPos="492.80" arrivalSpeed="4.63" duration="101.00" routeLength="994.90" waitingTime="0.00" waitingCount="0" stopTime="0.00" timeLoss="40.61" rerouteNo="0" devices="tripinfo_westEastBottom0.15 ssm_westEastBottom0.15" vType="carCustom" speedFactor="1.08" vaporized="teleport"/>
    <tripinfo id="westEastBottom0.8" depart="75.00" departLane="westJunction_0" departPos="5.10" departSpeed="7.45" departDelay="0.08" arrival="229.00" arrivalLane="junctionEast_0" arrivalPos="492.80" arrivalSpeed="7.38" duration="154.00" routeLength="994.90" waitingTime="0.00" waitingCount="0" stopTime="0.00" timeLoss="33.90" rerouteNo="0" devices="tripinfo_westEastBottom0.8 ssm_westEastBottom0.8" vType="carCustom" speedFactor="0.90" vaporized=""/>
    <tripinfo id="westEastTop.4" depart="64.00" departLane="westJunction_1" departPos="5.10" departSpeed="7.61" departDelay="0.40" arrival="230.00" arrivalLane="junctionEast_0" arrivalPos="492.80" arrivalSpeed="8.27" duration="166.00" routeLength="994.90" waitingTime="0.00" waitingCount="0" stopTime="0.00" timeLoss="45.71" rerouteNo="0" devices="tripinfo_westEastTop.4 ssm_westEastTop.4" vType="carCustom" speedFactor="0.92" vaporized=""/>
    <tripinfo id="westEastBottom0.16" depart="165.00" departLane="westJunction_0" departPos="5.10" departSpeed="5.29" departDelay="0.62" arrival="235.00" arrivalLane="junctionEast_0" arrivalPos="492.80" arrivalSpeed="4.51" duration="70.00" routeLength="994.90" waitingTime="0.00" waitingCount="0" stopTime="0.00" timeLoss="9.72" rerouteNo="0" devices="tripinfo_westEastBottom0.16 ssm_westEastBottom0.16" vType="carCustom" speedFactor="0.94" vaporized="teleport"/>
    <tripinfo id="westEastBottom0.7" depart="69.00" departLane="westJunction_0" departPos="5.10" departSpeed="8.02" departDelay="0.71" arrival="239.00" arrivalLane="junctionEast_1" arrivalPos="492.80" arrivalSpeed="7.75" duration="170.00" routeLength="994.90" waitingTime="0.00" waitingCount="0" stopTime="0.00" timeLoss="49.99" rerouteNo="0" devices="tripinfo_westEastBottom0.7 ssm_westEastBottom0.7" vType="carCustom" speedFactor="1.10" vaporized=""/>
    <tripinfo id="southEast.7" depart="89.00" departLane="southJunction_0" departPos="5.10" departSpeed="7.32" departDelay="0.67" arrival="239.00" arrivalLane="junctionEast_0" arrivalPos="492.80" arrivalSpeed="7.80" duration="150.00" routeLength="989.53" waitingTime="0.00" waitingCount="0" stopTime="0.00" timeLoss="29.96" rerouteNo="0" devices="tripinfo_southEast.7 ssm_southEast.7" vType="carCustom" speedFactor="0.88" vaporized=""/>
    <tripinfo id="southNorth.5" depart="58.00" departLane="southJunction_1" departPos="5.10" departSpeed="4.67" departDelay="0.54" arrival="241.00" arrivalLane="junctionNorth_0" arrivalPos="492.80" arrivalSpeed="7.83" duration="183.00" routeLength="995.01" waitingTime="13.00" waitingCount="2" stopTime="0.00" timeLoss="62.94" rerouteNo="0" devices="tripinfo_southNorth.5 ssm_southNorth.5" vType="carCustom" speedFactor="0.90" vaporized=""/>
    <tripinfo id="westEastTop.6" depart="70.00" departLane="westJunction_1" departPos="5.10" departSpeed="5.14" departDelay="4.10" arrival="248.00" arrivalLane="junctionEast_1" arrivalPos="492.80" arrivalSpeed="7.66" duration="178.00" routeLength="994.90" waitingTime="2.00" waitingCount="1" stopTime="0.00" timeLoss="58.11" rerouteNo="0" devices="tripinfo_westEastTop.6 ssm_westEastTop.6" vType="carCustom" speedFactor="0.95" vaporized=""/>
    <tripinfo id="westEastTop.5" depart="67.00" departLane="westJunction_1" departPos="5.10" departSpeed="7.70" departDelay="1.94" arrival="249.00" arrivalLane="junctionEast_0" arrivalPos="492.80" arrivalSpeed="7.20" duration="182.00" routeLength="994.90" waitingTime="1.00" waitingCount="1" stopTime="0.00" timeLoss="61.72" rerouteNo="0" devices="tripinfo_westEastTop.5 ssm_westEastTop.5" vType="carCustom" speedFactor="0.67" vaporized=""/>
    <tripinfo id="southNorth.6" depart="67.00" departLane="southJunction_1" departPos="5.10" departSpeed="3.85" departDelay="0.48" arrival="253.00" arrivalLane="junctionNorth_0" arrivalPos="492.80" arrivalSpeed="7.63" duration="186.00" routeLength="995.01" waitingTime="14.00" waitingCount="2" stopTime="0.00" timeLoss="66.56" rerouteNo="0" devices="tripinfo_southNorth.6 ssm_southNorth.6" vType="carCustom" speedFactor="1.07" vaporized=""/>
    <tripinfo id="westEastBottom0.9" depart="87.00" departLane="westJunction_0" departPos="5.10" departSpeed="6.00" departDelay="0.48" arrival="258.00" arrivalLane="junctionEast_1" arrivalPos="492.80" arrivalSpeed="7.94" duration="171.00" routeLength="994.90" waitingTime="0.00" waitingCount="0" stopTime="0.00" timeLoss="50.83" rerouteNo="0" devices="tripinfo_westEastBottom0.9 ssm_westEastBottom0.9" vType="carCustom" speedFactor="0.93" vaporized=""/>
    <tripinfo id="southEast.8" depart="91.00" departLane="southJunction_0" departPos="5.10" departSpeed="8.09" departDelay="2.35" arrival="258.00" arrivalLane="junctionEast_0" arrivalPos="492.80" arrivalSpeed="7.06" duration="167.00" routeLength="989.53" waitingTime="0.00" waitingCount="0" stopTime="0.00" timeLoss="47.39" rerouteNo="0" devices="tripinfo_southEast.8 ssm_southEast.8" vType="carCustom" speedFactor="0.94" vaporized=""/>
    <tripinfo id="westEastTop.7" depart="77.00" departLane="westJunction_1" departPos="5.10" departSpeed="3.03" departDelay="1.00" arrival="267.00" arrivalLane="junctionEast_1" arrivalPos="492.80" arrivalSpeed="7.14" duration="190.00" routeLength="994.90" waitingTime="0.00" waitingCount="0" stopTime="0.00" timeLoss="70.10" rerouteNo="0" devices="tripinfo_westEastTop.7 ssm_westEastTop.7" vType="carCustom" speedFactor="0.97" vaporized=""/>
    <tripinfo id="southEast.9" depart="101.00" departLane="southJunction_0" departPos="5.10" departSpeed="5.20" departDelay="0.75" arrival="267.00" arrivalLane="junctionEast_0" arrivalPos="492.80" arrivalSpeed="8.24" duration="166.00" routeLength="989.53" waitingTime="0.00" waitingCount="0" stopTime="0.00" timeLoss="45.97" rerouteNo="0" devices="tripinfo_southEast.9 ssm_southEast.9" vType="carCustom" speedFactor="0.80" vaporized=""/>
    <tripinfo id="southNorth.7" depart="73.00" departLane="southJunction_1" departPos="5.10" departSpeed="4.11" departDelay="0.27" arrival="271.00" arrivalLane="junctionNorth_0" arrivalPos="492.80" arrivalSpeed="7.84" duration="198.00" routeLength="995.01" waitingTime="13.00" waitingCount="2" stopTime="0.00" timeLoss="77.77" rerouteNo="0" devices="tripinfo_southNorth.7 ssm_southNorth.7" vType="carCustom" speedFactor="1.09" vaporized=""/>
    <tripinfo id="westEastBottom0.19" depart="193.00" departLane="westJunction_0" departPos="5.10" departSpeed="7.58" departDelay="0.57" arrival="275.00" arrivalLane="junctionEast_0" arrivalPos="492.80" arrivalSpeed="4.66" duration="82.00" routeLength="994.90" waitingTime="0.00" waitingCount="0" stopTime="0.00" timeLoss="21.65" rerouteNo="0" devices="tripinfo_westEastBottom0.19 ssm_westEastBottom0.19" vType="carCustom" speedFactor="1.06" vaporized="teleport"/>
    <tripinfo id="westEastBottom0.10" depart="99.00" departLane="westJunction_0" departPos="5.10" departSpeed="6.28" departDelay="0.45" arrival="276.00" arrivalLane="junctionEast_0" arrivalPos="492.80" arrivalSpeed="7.58" duration="177.00" routeLength="994.90" waitingTime="0.00" waitingCount="0" stopTime="0.00" timeLoss="56.93" rerouteNo="0" devices="tripinfo_westEastBottom0.10 ssm_westEastBottom0.10" vType="carCustom" speedFactor="0.95" vaporized=""/>
    <tripinfo id="westEastBottom0.11" depart="102.00" departLane="westJunction_0" departPos="5.10" departSpeed="7.10" departDelay="2.18" arrival="277.00" arrivalLane="junctionEast_1" arrivalPos="492.80" arrivalSpeed="7.93" duration="175.00" routeLength="994.90" waitingTime="0.00" waitingCount="0" stopTime="0.00" timeLoss="54.82" rerouteNo="0" devices="tripinfo_westEastBottom0.11 ssm_westEastBottom0.11" vType="carCustom" speedFactor="0.88" vaporized=""/>
    <tripinfo id="southNorth.8" depart="94.00" departLane="southJunction_1" departPos="5.10" departSpeed="4.04" departDelay="0.96" arrival="282.00" arrivalLane="junctionNorth_0" arrivalPos="492.80" arrivalSpeed="7.82" duration="188.00" routeLength="995.01" waitingTime="9.00" waitingCount="2" stopTime="0.00" timeLoss="67.97" rerouteNo="0" devices="tripinfo_southNorth.8 ssm_southNorth.8" vType="carCustom" speedFactor="1.02" vaporized=""/>
    <tripinfo id="westEastTop.8" depart="82.00" departLane="westJunction_1" departPos="5.10" departSpeed="3.39" departDelay="0.93" arrival="285.00" arrivalLane="junctionEast_1" arrivalPos="492.80" arrivalSpeed="7.79" duration="203.00" routeLength="994.90" waitingTime="0.00" waitingCount="0" stopTime="0.00" timeLoss="83.30" rerouteNo="0" devices="tripinfo_westEastTop.8 ssm_westEastTop.8" vType="carCustom" speedFactor="1.16" vaporized=""/>
    <tripinfo id="southEast.10" depart="104.00" departLane="southJunction_0" departPos="5.10" departSpeed="5.78" departDelay="3.30" arrival="285.00" arrivalLane="junctionEast_0" arrivalPos="492.80" arrivalSpeed="7.89" duration="181.00" routeLength="989.53" waitingTime="0.00" waitingCount="0" stopTime="0.00" timeLoss="61.87" rerouteNo="0" devices="tripinfo_southEast.10 ssm_southEast.10" vType="carCustom" speedFactor="0.90" vaporized=""/>
    <tripinfo id="southNorth.9" depart="97.00" departLane="southJunction_1" departPos="5.10" departSpeed="6.67" departDelay="0.89" arrival="293.00" arrivalLane="junctionNorth_0" arrivalPos="492.80" arrivalSpeed="7.72" duration="196.00" routeLength="995.01" waitingTime="8.00" waitingCount="2" stopTime="0.00" timeLoss="75.82" rerouteNo="0" devices="tripinfo_southNorth.9 ssm_southNorth.9" vType="carCustom" speedFactor="1.02" vaporized=""/>
    <tripinfo id="westEastTop.9" depart="87.00" departLane="westJunction_1" departPos="5.10" departSpeed="2.27" departDelay="4.55" arrival="294.00" arrivalLane="junctionEast_0" arrivalPos="492.80" arrivalSpeed="7.58" duration="207.00" routeLength="994.90" waitingTime="1.00" waitingCount="1" stopTime="0.00" timeLoss="86.86" rerouteNo="0" devices="tripinfo_westEastTop.9 ssm_westEastTop.9" vType="carCustom" speedFactor="0.90" vaporized=""/>
    <tripinfo id="southEast.11" depart="114.00" departLane="southJunction_0" departPos="5.10" departSpeed="4.62" departDelay="0.40" arrival="295.00" arrivalLane="junctionEast_1" arrivalPos="492.80" arrivalSpeed="7.91" duration="181.00" routeLength="989.53" waitingTime="0.00" waitingCount="0" stopTime="0.00" timeLoss="61.29" rerouteNo="0" devices="tripinfo_southEast.11 ssm_southEast.11" vType="carCustom" speedFactor="0.89" vaporized=""/>
    <tripinfo id="westEastBottom0.12" depart="109.00" departLane="westJunction_0" departPos="5.10" departSpeed="4.39" departDelay="0.52" arrival="303.00" arrivalLane="junctionEast_1" arrivalPos="492.80" arrivalSpeed="7.85" duration="194.00" routeLength="994.90" waitingTime="0.00" waitingCount="0" stopTime="0.00" timeLoss="74.47" rerouteNo="0" devices="tripinfo_westEastBottom0.12 ssm_westEastBottom0.12" vType="carCustom" speedFactor="0.97" vaporized=""/>
    <tripinfo id="southEast.12" depart="121.00" departLane="southJunction_0" departPos="5.10" departSpeed="4.28" departDelay="0.40" arrival="303.00" arrivalLane="junctionEast_0" arrivalPos="492.80" arrivalSpeed="7.89" duration="182.00" routeLength="989.53" waitingTime="0.00" waitingCount="0" stopTime="0.00" timeLoss="62.59" rerouteNo="0" devices="tripinfo_southEast.12 ssm_southEast.12" vType="carCustom" speedFactor="0.89" vaporized=""/>
    <tripinfo id="southNorth.10" depart="102.00" departLane="southJunction_1" departPos="5.10" departSpeed="3.35" departDelay="0.78" arrival="304.00" arrivalLane="junctionNorth_0" arrivalPos="492.80" arrivalSpeed="7.67" duration="202.00" routeLength="995.01" waitingTime="7.00" waitingCount="2" stopTime="0.00" timeLoss="82.39" rerouteNo="0" devices="tripinfo_southNorth.10 ssm_southNorth.10" vType="carCustom" speedFactor="0.90" vaporized=""/>
    <tripinfo id="westEastTop.10" depart="93.00" departLane="westJunction_1" departPos="5.10" departSpeed="2.41" departDelay="9.88" arrival="312.00" arrivalLane="junctionEast_1" arrivalPos="492.80" arrivalSpeed="7.60" duration="219.00" routeLength="994.90" waitingTime="0.00" waitingCount="0" stopTime="0.00" timeLoss="99.25" rerouteNo="0" devices="tripinfo_westEastTop.10 ssm_westEastTop.10" vType="carCustom" speedFactor="0.98" vaporized=""/>
    <tripinfo id="southEast.13" depart="125.00" departLane="southJunction_0" departPos="5.10" departSpeed="4.13" departDelay="4.26" arrival="313.00" arrivalLane="junctionEast_0" arrivalPos="492.80" arrivalSpeed="7.56" duration="188.00" routeLength="989.53" waitingTime="0.00" waitingCount="0" stopTime="0.00" timeLoss="68.46" rerouteNo="0" devices="tripinfo_southEast.13 ssm_southEast.13" vType="carCustom" speedFactor="1.21" vaporized=""/>
    <tripinfo id="southNorth.11" depart="106.00" departLane="southJunction_1" departPos="5.10" departSpeed="3.08" departDelay="1.42" arrival="315.00" arrivalLane="junctionNorth_0" arrivalPos="492.80" arrivalSpeed="8.23" duration="209.00" routeLength="995.01" waitingTime="2.00" waitingCount="1" stopTime="0.00" timeLoss="89.40" rerouteNo="0" devices="tripinfo_southNorth.11 ssm_southNorth.11" vType="carCustom" speedFactor="0.96" vaporized=""/>
    <tripinfo id="westEastTop.11" depart="100.00" departLane="westJunction_1" departPos="5.10" departSpeed="2.53" departDelay="13.18" arrival="321.00" arrivalLane="junctionEast_0" arrivalPos="492.80" arrivalSpeed="7.84" duration="221.00" routeLength="994.90" waitingTime="0.00" waitingCount="0" stopTime="0.00" timeLoss="101.04" rerouteNo="0" devices="tripinfo_westEastTop.11 ssm_westEastTop.11" vType="carCustom" speedFactor="0.99" vaporized=""/>
    <tripinfo id="southEast.14" depart="144.00" departLane="southJunction_0" departPos="5.10" departSpeed="4.45" departDelay="0.62" arrival="322.00" arrivalLane="junctionEast_1" arrivalPos="492.80" arrivalSpeed="8.19" duration="178.00" routeLength="989.53" waitingTime="0.00" waitingCount="0" stopTime="0.00" timeLoss="58.73" rerouteNo="0" devices="tripinfo_southEast.14 ssm_southEast.14" vType="carCustom" speedFactor="0.98" vaporized=""/>
    <tripinfo id="westEastBottom0.23" depart="230.00" departLane="westJunction_0" departPos="5.10" departSpeed="4.99" departDelay="0.03" arrival="322.00" arrivalLane="junctionEast_0" arrivalPos="492.80" arrivalSpeed="2.50" duration="92.00" routeLength="994.90" waitingTime="0.00" waitingCount="0" stopTime="0.00" timeLoss="31.55" rerouteNo="0" devices="tripinfo_westEastBottom0.23 ssm_westEastBottom0.23" vType="carCustom" speedFactor="0.94" vaporized="teleport"/>
    <tripinfo id="westEastTop.12" depart="106.00" departLane="westJunction_1" departPos="5.10" departSpeed="2.08" departDelay="17.40" arrival="331.00" arrivalLane="junctionEast_1" arrivalPos="492.80" arrivalSpeed="7.68" duration="225.00" routeLength="994.90" waitingTime="0.00" waitingCount="0" stopTime="0.00" timeLoss="104.77" rerouteNo="0" devices="tripinfo_westEastTop.12 ssm_westEastTop.12" vType="carCustom" speedFactor="1.13" vaporized=""/>
    <tripinfo id="southEast.15" depart="147.00" departLane="southJunction_0" departPos="5.10" departSpeed="6.37" departDelay="1.49" arrival="331.00" arrivalLane="junctionEast_0" arrivalPos="492.80" arrivalSpeed="7.40" duration="184.00" routeLength="989.53" waitingTime="0.00" waitingCount="0" stopTime="0.00" timeLoss="64.45" rerouteNo="0" devices="tripinfo_southEast.15 ssm_southEast.15" vType="carCustom" speedFactor="1.02" vaporized=""/>
    <tripinfo id="westEastBottom0.24" depart="233.00" departLane="westJunction_0" departPos="5.10" departSpeed="6.31" departDelay="2.46" arrival="331.00" arrivalLane="junctionEast_0" arrivalPos="492.80" arrivalSpeed="2.46" duration="98.00" routeLength="994.90" waitingTime="0.00" waitingCount="0" stopTime="0.00" timeLoss="37.46" rerouteNo="0" devices="tripinfo_westEastBottom0.24 ssm_westEastBottom0.24" vType="carCustom" speedFactor="1.02" vaporized="teleport"/>
    <tripinfo id="southNorth.12" depart="112.00" departLane="southJunction_1" departPos="5.10" departSpeed="2.75" departDelay="1.30" arrival="333.00" arrivalLane="junctionNorth_0" arrivalPos="492.80" arrivalSpeed="7.69" duration="221.00" routeLength="995.01" waitingTime="17.00" waitingCount="1" stopTime="0.00" timeLoss="101.42" rerouteNo="0" devices="tripinfo_southNorth.12 ssm_southNorth.12" vType="carCustom" speedFactor="0.92" vaporized=""/>
    <tripinfo id="westEastTop.13" depart="113.00" departLane="westJunction_1" departPos="5.10" departSpeed="1.61" departDelay="17.66" arrival="339.00" arrivalLane="junctionEast_0" arrivalPos="492.80" arrivalSpeed="8.12" duration="226.00" routeLength="994.90" waitingTime="0.00" waitingCount="0" stopTime="0.00" timeLoss="106.08" rerouteNo="0" devices="tripinfo_westEastTop.13 ssm_westEastTop.13" vType="carCustom" speedFactor="0.81" vaporized=""/>