<?xml version="1.0" encoding="UTF-8"?>

<!-- generated on 2025-04-29 07:55:13 by Eclipse SUMO sumo Version 1.20.0
<configuration xmlns:xsi="http://www.w3.org/2001/XMLSchema-instance" xsi:noNamespaceSchemaLocation="http://sumo.dlr.de/xsd/sumoConfiguration.xsd">

    <input>
        <net-file value="nets/2lane_unprotected_right/2lane_unprotected_right.net.xml"/>
        <route-files value="nets/2lane_unprotected_right/2lane_unprotected_right.rou.xml"/>
    </input>

    <output>
        <tripinfo-output value="traces/transs50f1_s50_f0.5_random/0131_tripinfo.xml"/>
        <collision-output value="traces/transs50f1_s50_f0.5_random/0131_collisions.xml"/>
        <statistic-output value="traces/transs50f1_s50_f0.5_random/0131_statistics.xml"/>
    </output>

    <processing>
        <collision.action value="teleport"/>
        <collision.check-junctions value="true"/>
        <time-to-teleport value="-1"/>
        <waiting-time-memory value="1000"/>
        <max-depart-delay value="-1"/>
        <default.speeddev value="0.1"/>
    </processing>

    <report>
        <no-warnings value="true"/>
    </report>

    <ssm_device>
        <device.ssm.probability value="1.0"/>
        <device.ssm.measures value="BR"/>
        <device.ssm.file value="/Users/finn/Code/CausalKnowledgeTransfer-4-SafeRL/traces/transs50f1_s50_f0.5_random/0131_ssm.xml"/>
    </ssm_device>

    <traci_server>
        <remote-port value="64032"/>
    </traci_server>

    <random_number>
        <random value="true"/>
    </random_number>

</configuration>
-->

<tripinfos xmlns:xsi="http://www.w3.org/2001/XMLSchema-instance" xsi:noNamespaceSchemaLocation="http://sumo.dlr.de/xsd/tripinfo_file.xsd">
    <tripinfo id="southNorth.0" depart="1.00" departLane="southJunction_1" departPos="5.10" departSpeed="22.22" departDelay="0.09" arrival="49.00" arrivalLane="junctionNorth_0" arrivalPos="492.80" arrivalSpeed="21.06" duration="48.00" routeLength="995.01" waitingTime="0.00" waitingCount="0" stopTime="0.00" timeLoss="2.76" rerouteNo="0" devices="tripinfo_southNorth.0 ssm_southNorth.0" vType="carCustom" speedFactor="0.96" vaporized=""/>
    <tripinfo id="westEastBottom0.0" depart="10.00" departLane="westJunction_0" departPos="5.10" departSpeed="22.22" departDelay="0.01" arrival="57.00" arrivalLane="junctionEast_0" arrivalPos="492.80" arrivalSpeed="21.29" duration="47.00" routeLength="994.90" waitingTime="0.00" waitingCount="0" stopTime="0.00" timeLoss="1.39" rerouteNo="0" devices="tripinfo_westEastBottom0.0 ssm_westEastBottom0.0" vType="carCustom" speedFactor="1.05" vaporized=""/>
    <tripinfo id="southNorth.1" depart="3.00" departLane="southJunction_1" departPos="5.10" departSpeed="21.03" departDelay="1.58" arrival="60.00" arrivalLane="junctionNorth_0" arrivalPos="492.80" arrivalSpeed="21.36" duration="57.00" routeLength="995.01" waitingTime="0.00" waitingCount="0" stopTime="0.00" timeLoss="11.87" rerouteNo="0" devices="tripinfo_southNorth.1 ssm_southNorth.1" vType="carCustom" speedFactor="1.05" vaporized=""/>
    <tripinfo id="southNorth.2" depart="5.00" departLane="southJunction_1" departPos="5.10" departSpeed="16.17" departDelay="3.01" arrival="66.00" arrivalLane="junctionNorth_0" arrivalPos="492.80" arrivalSpeed="21.08" duration="61.00" routeLength="995.01" waitingTime="0.00" waitingCount="0" stopTime="0.00" timeLoss="16.16" rerouteNo="0" devices="tripinfo_southNorth.2 ssm_southNorth.2" vType="carCustom" speedFactor="0.88" vaporized=""/>
    <tripinfo id="westEastTop.0" depart="17.00" departLane="westJunction_1" departPos="5.10" departSpeed="22.22" departDelay="0.70" arrival="66.00" arrivalLane="junctionEast_0" arrivalPos="492.80" arrivalSpeed="22.06" duration="49.00" routeLength="994.90" waitingTime="0.00" waitingCount="0" stopTime="0.00" timeLoss="3.65" rerouteNo="0" devices="tripinfo_westEastTop.0 ssm_westEastTop.0" vType="carCustom" speedFactor="0.90" vaporized=""/>
    <tripinfo id="westEastBottom0.1" depart="19.00" departLane="westJunction_0" departPos="5.10" departSpeed="21.52" departDelay="0.75" arrival="67.00" arrivalLane="junctionEast_0" arrivalPos="492.80" arrivalSpeed="20.90" duration="48.00" routeLength="994.90" waitingTime="0.00" waitingCount="0" stopTime="0.00" timeLoss="3.08" rerouteNo="0" devices="tripinfo_westEastBottom0.1 ssm_westEastBottom0.1" vType="carCustom" speedFactor="0.88" vaporized=""/>
    <tripinfo id="southNorth.3" depart="7.00" departLane="southJunction_1" departPos="5.10" departSpeed="11.39" departDelay="4.91" arrival="73.00" arrivalLane="junctionNorth_0" arrivalPos="492.80" arrivalSpeed="21.31" duration="66.00" routeLength="995.01" waitingTime="0.00" waitingCount="0" stopTime="0.00" timeLoss="20.66" rerouteNo="0" devices="tripinfo_southNorth.3 ssm_southNorth.3" vType="carCustom" speedFactor="1.12" vaporized=""/>
    <tripinfo id="westEastBottom0.2" depart="23.00" departLane="westJunction_0" departPos="5.10" departSpeed="20.95" departDelay="0.29" arrival="76.00" arrivalLane="junctionEast_0" arrivalPos="492.80" arrivalSpeed="21.22" duration="53.00" routeLength="994.90" waitingTime="0.00" waitingCount="0" stopTime="0.00" timeLoss="7.64" rerouteNo="0" devices="tripinfo_westEastBottom0.2 ssm_westEastBottom0.2" vType="carCustom" speedFactor="1.01" vaporized=""/>
    <tripinfo id="westEastTop.1" depart="21.00" departLane="westJunction_1" departPos="5.10" departSpeed="21.74" departDelay="0.07" arrival="78.00" arrivalLane="junctionEast_1" arrivalPos="492.80" arrivalSpeed="22.12" duration="57.00" routeLength="994.90" waitingTime="0.00" waitingCount="0" stopTime="0.00" timeLoss="11.44" rerouteNo="0" devices="tripinfo_westEastTop.1 ssm_westEastTop.1" vType="carCustom" speedFactor="1.04" vaporized=""/>
    <tripinfo id="southEast.0" depart="26.00" departLane="southJunction_0" departPos="5.10" departSpeed="22.22" departDelay="0.94" arrival="84.00" arrivalLane="junctionEast_0" arrivalPos="492.80" arrivalSpeed="21.70" duration="58.00" routeLength="989.53" waitingTime="0.00" waitingCount="0" stopTime="0.00" timeLoss="12.19" rerouteNo="0" devices="tripinfo_southEast.0 ssm_southEast.0" vType="carCustom" speedFactor="0.92" vaporized=""/>
    <tripinfo id="southNorth.4" depart="9.00" departLane="southJunction_1" departPos="5.10" departSpeed="7.58" departDelay="0.65" arrival="85.00" arrivalLane="junctionNorth_0" arrivalPos="492.80" arrivalSpeed="21.16" duration="76.00" routeLength="995.01" waitingTime="2.00" waitingCount="1" stopTime="0.00" timeLoss="30.45" rerouteNo="0" devices="tripinfo_southNorth.4 ssm_southNorth.4" vType="carCustom" speedFactor="0.87" vaporized=""/>
    <tripinfo id="westEastTop.2" depart="29.00" departLane="westJunction_1" departPos="5.10" departSpeed="18.68" departDelay="0.04" arrival="89.00" arrivalLane="junctionEast_0" arrivalPos="492.80" arrivalSpeed="21.69" duration="60.00" routeLength="994.90" waitingTime="1.00" waitingCount="1" stopTime="0.00" timeLoss="14.76" rerouteNo="0" devices="tripinfo_westEastTop.2 ssm_westEastTop.2" vType="carCustom" speedFactor="1.14" vaporized=""/>
    <tripinfo id="southEast.1" depart="31.00" departLane="southJunction_0" departPos="5.10" departSpeed="16.67" departDelay="0.53" arrival="93.00" arrivalLane="junctionEast_0" arrivalPos="492.80" arrivalSpeed="21.44" duration="62.00" routeLength="989.53" waitingTime="0.00" waitingCount="0" stopTime="0.00" timeLoss="15.54" rerouteNo="0" devices="tripinfo_southEast.1 ssm_southEast.1" vType="carCustom" speedFactor="1.07" vaporized=""/>
    <tripinfo id="southNorth.5" depart="19.00" departLane="southJunction_1" departPos="5.10" departSpeed="9.38" departDelay="0.15" arrival="94.00" arrivalLane="junctionNorth_0" arrivalPos="492.80" arrivalSpeed="22.06" duration="75.00" routeLength="995.01" waitingTime="4.00" waitingCount="1" stopTime="0.00" timeLoss="30.08" rerouteNo="0" devices="tripinfo_southNorth.5 ssm_southNorth.5" vType="carCustom" speedFactor="0.99" vaporized=""/>
    <tripinfo id="westEastBottom0.3" depart="33.00" departLane="westJunction_0" departPos="5.10" departSpeed="18.80" departDelay="0.86" arrival="100.00" arrivalLane="junctionEast_0" arrivalPos="492.80" arrivalSpeed="22.07" duration="67.00" routeLength="994.90" waitingTime="3.00" waitingCount="1" stopTime="0.00" timeLoss="21.63" rerouteNo="0" devices="tripinfo_westEastBottom0.3 ssm_westEastBottom0.3" vType="carCustom" speedFactor="0.87" vaporized=""/>
    <tripinfo id="southNorth.6" depart="24.00" departLane="southJunction_1" departPos="5.10" departSpeed="12.09" departDelay="0.02" arrival="104.00" arrivalLane="junctionNorth_0" arrivalPos="492.80" arrivalSpeed="21.02" duration="80.00" routeLength="995.01" waitingTime="5.00" waitingCount="1" stopTime="0.00" timeLoss="35.02" rerouteNo="0" devices="tripinfo_southNorth.6 ssm_southNorth.6" vType="carCustom" speedFactor="0.94" vaporized=""/>
    <tripinfo id="southEast.2" depart="42.00" departLane="southJunction_0" departPos="5.10" departSpeed="15.97" departDelay="0.98" arrival="105.00" arrivalLane="junctionEast_0" arrivalPos="492.80" arrivalSpeed="21.58" duration="63.00" routeLength="989.53" waitingTime="0.00" waitingCount="0" stopTime="0.00" timeLoss="17.72" rerouteNo="0" devices="tripinfo_southEast.2 ssm_southEast.2" vType="carCustom" speedFactor="1.05" vaporized=""/>
    <tripinfo id="westEastTop.3" depart="34.00" departLane="westJunction_1" departPos="5.10" departSpeed="20.01" departDelay="0.68" arrival="109.00" arrivalLane="junctionEast_1" arrivalPos="492.80" arrivalSpeed="21.69" duration="75.00" routeLength="994.90" waitingTime="4.00" waitingCount="1" stopTime="0.00" timeLoss="29.70" rerouteNo="0" devices="tripinfo_westEastTop.3 ssm_westEastTop.3" vType="carCustom" speedFactor="1.03" vaporized=""/>
    <tripinfo id="southEast.3" depart="44.00" departLane="southJunction_0" departPos="5.10" departSpeed="17.01" departDelay="1.61" arrival="112.00" arrivalLane="junctionEast_0" arrivalPos="492.80" arrivalSpeed="21.68" duration="68.00" routeLength="989.53" waitingTime="0.00" waitingCount="0" stopTime="0.00" timeLoss="21.13" rerouteNo="0" devices="tripinfo_southEast.3 ssm_southEast.3" vType="carCustom" speedFactor="0.86" vaporized=""/>
    <tripinfo id="southNorth.7" depart="26.00" departLane="southJunction_1" departPos="5.10" departSpeed="12.23" departDelay="1.76" arrival="114.00" arrivalLane="junctionNorth_0" arrivalPos="492.80" arrivalSpeed="21.04" duration="88.00" routeLength="995.01" waitingTime="5.00" waitingCount="1" stopTime="0.00" timeLoss="43.17" rerouteNo="0" devices="tripinfo_southNorth.7 ssm_southNorth.7" vType="carCustom" speedFactor="0.97" vaporized=""/>
    <tripinfo id="westEastBottom0.5" depart="56.00" departLane="westJunction_0" departPos="5.10" departSpeed="22.22" departDelay="0.02" arrival="115.00" arrivalLane="junctionEast_1" arrivalPos="492.80" arrivalSpeed="21.41" duration="59.00" routeLength="994.90" waitingTime="0.00" waitingCount="0" stopTime="0.00" timeLoss="13.68" rerouteNo="0" devices="tripinfo_westEastBottom0.5 ssm_westEastBottom0.5" vType="carCustom" speedFactor="0.90" vaporized=""/>
    <tripinfo id="southEast.4" depart="46.00" departLane="southJunction_0" departPos="5.10" departSpeed="12.12" departDelay="3.20" arrival="118.00" arrivalLane="junctionEast_0" arrivalPos="492.80" arrivalSpeed="21.50" duration="72.00" routeLength="989.53" waitingTime="0.00" waitingCount="0" stopTime="0.00" timeLoss="25.54" rerouteNo="0" devices="tripinfo_southEast.4 ssm_southEast.4" vType="carCustom" speedFactor="0.88" vaporized=""/>
    <tripinfo id="westEastBottom0.4" depart="40.00" departLane="westJunction_0" departPos="5.10" departSpeed="18.87" departDelay="0.33" arrival="121.00" arrivalLane="junctionEast_1" arrivalPos="492.80" arrivalSpeed="22.06" duration="81.00" routeLength="994.90" waitingTime="5.00" waitingCount="1" stopTime="0.00" timeLoss="35.88" rerouteNo="0" devices="tripinfo_westEastBottom0.4 ssm_westEastBottom0.4" vType="carCustom" speedFactor="0.90" vaporized=""/>
    <tripinfo id="southEast.5" depart="47.00" departLane="southJunction_0" departPos="5.10" departSpeed="11.95" departDelay="1.80" arrival="124.00" arrivalLane="junctionEast_0" arrivalPos="492.80" arrivalSpeed="21.24" duration="77.00" routeLength="989.53" waitingTime="0.00" waitingCount="0" stopTime="0.00" timeLoss="31.06" rerouteNo="0" devices="tripinfo_southEast.5 ssm_southEast.5" vType="carCustom" speedFactor="1.16" vaporized=""/>
    <tripinfo id="southNorth.8" depart="28.00" departLane="southJunction_1" departPos="5.10" departSpeed="8.19" departDelay="0.56" arrival="126.00" arrivalLane="junctionNorth_0" arrivalPos="492.80" arrivalSpeed="22.09" duration="98.00" routeLength="995.01" waitingTime="10.00" waitingCount="2" stopTime="0.00" timeLoss="52.33" rerouteNo="0" devices="tripinfo_southNorth.8 ssm_southNorth.8" vType="carCustom" speedFactor="0.91" vaporized=""/>
    <tripinfo id="westEastTop.4" depart="44.00" departLane="westJunction_1" departPos="5.10" departSpeed="16.16" departDelay="0.64" arrival="127.00" arrivalLane="junctionEast_1" arrivalPos="492.80" arrivalSpeed="21.52" duration="83.00" routeLength="994.90" waitingTime="3.00" waitingCount="1" stopTime="0.00" timeLoss="37.56" rerouteNo="0" devices="tripinfo_westEastTop.4 ssm_westEastTop.4" vType="carCustom" speedFactor="0.86" vaporized=""/>
    <tripinfo id="southEast.6" depart="52.00" departLane="southJunction_0" departPos="5.10" departSpeed="10.98" departDelay="0.85" arrival="129.00" arrivalLane="junctionEast_0" arrivalPos="492.80" arrivalSpeed="22.02" duration="77.00" routeLength="989.53" waitingTime="0.00" waitingCount="0" stopTime="0.00" timeLoss="31.76" rerouteNo="0" devices="tripinfo_southEast.6 ssm_southEast.6" vType="carCustom" speedFactor="0.78" vaporized=""/>
    <tripinfo id="westEastTop.5" depart="53.00" departLane="westJunction_1" departPos="5.10" departSpeed="14.34" departDelay="0.14" arrival="133.00" arrivalLane="junctionEast_1" arrivalPos="492.80" arrivalSpeed="22.11" duration="80.00" routeLength="994.90" waitingTime="3.00" waitingCount="1" stopTime="0.00" timeLoss="34.96" rerouteNo="0" devices="tripinfo_westEastTop.5 ssm_westEastTop.5" vType="carCustom" speedFactor="0.88" vaporized=""/>
    <tripinfo id="westEastBottom0.6" depart="73.00" departLane="westJunction_0" departPos="5.10" departSpeed="15.80" departDelay="0.21" arrival="135.00" arrivalLane="junctionEast_0" arrivalPos="492.80" arrivalSpeed="20.99" duration="62.00" routeLength="994.90" waitingTime="0.00" waitingCount="0" stopTime="0.00" timeLoss="16.89" rerouteNo="0" devices="tripinfo_westEastBottom0.6 ssm_westEastBottom0.6" vType="carCustom" speedFactor="1.01" vaporized=""/>
    <tripinfo id="westEastTop.6" depart="58.00" departLane="westJunction_1" departPos="5.10" departSpeed="15.91" departDelay="0.80" arrival="139.00" arrivalLane="junctionEast_1" arrivalPos="492.80" arrivalSpeed="22.14" duration="81.00" routeLength="994.90" waitingTime="0.00" waitingCount="0" stopTime="0.00" timeLoss="35.78" rerouteNo="0" devices="tripinfo_westEastTop.6 ssm_westEastTop.6" vType="carCustom" speedFactor="0.97" vaporized=""/>
    <tripinfo id="southNorth.9" depart="41.00" departLane="southJunction_1" departPos="5.10" departSpeed="10.47" departDelay="0.18" arrival="141.00" arrivalLane="junctionNorth_0" arrivalPos="492.80" arrivalSpeed="21.19" duration="100.00" routeLength="995.01" waitingTime="17.00" waitingCount="3" stopTime="0.00" timeLoss="54.38" rerouteNo="0" devices="tripinfo_southNorth.9 ssm_southNorth.9" vType="carCustom" speedFactor="1.10" vaporized=""/>
    <tripinfo id="southEast.7" depart="84.00" departLane="southJunction_0" departPos="5.10" departSpeed="10.97" departDelay="0.63" arrival="144.00" arrivalLane="junctionEast_0" arrivalPos="492.80" arrivalSpeed="21.18" duration="60.00" routeLength="989.53" waitingTime="0.00" waitingCount="0" stopTime="0.00" timeLoss="13.65" rerouteNo="0" devices="tripinfo_southEast.7 ssm_southEast.7" vType="carCustom" speedFactor="1.07" vaporized=""/>
    <tripinfo id="westEastTop.7" depart="60.00" departLane="westJunction_1" departPos="5.10" departSpeed="14.54" departDelay="2.71" arrival="145.00" arrivalLane="junctionEast_1" arrivalPos="492.80" arrivalSpeed="20.95" duration="85.00" routeLength="994.90" waitingTime="0.00" waitingCount="0" stopTime="0.00" timeLoss="39.36" rerouteNo="0" devices="tripinfo_westEastTop.7 ssm_westEastTop.7" vType="carCustom" speedFactor="1.02" vaporized=""/>
    <tripinfo id="southNorth.10" depart="51.00" departLane="southJunction_1" departPos="5.10" departSpeed="14.30" departDelay="0.02" arrival="147.00" arrivalLane="junctionNorth_0" arrivalPos="492.80" arrivalSpeed="21.66" duration="96.00" routeLength="995.01" waitingTime="10.00" waitingCount="2" stopTime="0.00" timeLoss="50.36" rerouteNo="0" devices="tripinfo_southNorth.10 ssm_southNorth.10" vType="carCustom" speedFactor="0.87" vaporized=""/>
    <tripinfo id="westEastTop.8" depart="62.00" departLane="westJunction_1" departPos="5.10" departSpeed="10.12" departDelay="3.03" arrival="150.00" arrivalLane="junctionEast_1" arrivalPos="492.80" arrivalSpeed="22.08" duration="88.00" routeLength="994.90" waitingTime="3.00" waitingCount="1" stopTime="0.00" timeLoss="42.94" rerouteNo="0" devices="tripinfo_westEastTop.8 ssm_westEastTop.8" vType="carCustom" speedFactor="0.79" vaporized=""/>
    <tripinfo id="southEast.8" depart="87.00" departLane="southJunction_0" departPos="5.10" departSpeed="17.27" departDelay="0.19" arrival="152.00" arrivalLane="junctionEast_0" arrivalPos="492.80" arrivalSpeed="22.19" duration="65.00" routeLength="989.53" waitingTime="0.00" waitingCount="0" stopTime="0.00" timeLoss="19.16" rerouteNo="0" devices="tripinfo_southEast.8 ssm_southEast.8" vType="carCustom" speedFactor="0.97" vaporized=""/>
    <tripinfo id="southNorth.11" depart="53.00" departLane="southJunction_1" departPos="5.10" departSpeed="12.98" departDelay="1.55" arrival="153.00" arrivalLane="junctionNorth_0" arrivalPos="492.80" arrivalSpeed="21.06" duration="100.00" routeLength="995.01" waitingTime="9.00" waitingCount="3" stopTime="0.00" timeLoss="54.66" rerouteNo="0" devices="tripinfo_southNorth.11 ssm_southNorth.11" vType="carCustom" speedFactor="0.97" vaporized=""/>
    <tripinfo id="westEastTop.9" depart="64.00" departLane="westJunction_1" departPos="5.10" departSpeed="6.38" departDelay="0.89" arrival="157.00" arrivalLane="junctionEast_1" arrivalPos="492.80" arrivalSpeed="21.41" duration="93.00" routeLength="994.90" waitingTime="5.00" waitingCount="1" stopTime="0.00" timeLoss="47.70" rerouteNo="0" devices="tripinfo_westEastTop.9 ssm_westEastTop.9" vType="carCustom" speedFactor="0.94" vaporized=""/>
    <tripinfo id="southEast.9" depart="92.00" departLane="southJunction_0" departPos="5.10" departSpeed="15.50" departDelay="0.65" arrival="158.00" arrivalLane="junctionEast_0" arrivalPos="492.80" arrivalSpeed="21.14" duration="66.00" routeLength="989.53" waitingTime="0.00" waitingCount="0" stopTime="0.00" timeLoss="19.56" rerouteNo="0" devices="tripinfo_southEast.9 ssm_southEast.9" vType="carCustom" speedFactor="1.09" vaporized=""/>
    <tripinfo id="southNorth.12" depart="60.00" departLane="southJunction_1" departPos="5.10" departSpeed="11.00" departDelay="0.64" arrival="161.00" arrivalLane="junctionNorth_0" arrivalPos="492.80" arrivalSpeed="21.75" duration="101.00" routeLength="995.01" waitingTime="10.00" waitingCount="2" stopTime="0.00" timeLoss="55.65" rerouteNo="0" devices="tripinfo_southNorth.12 ssm_southNorth.12" vType="carCustom" speedFactor="1.05" vaporized=""/>
    <tripinfo id="westEastBottom0.7" depart="102.00" departLane="westJunction_0" departPos="5.10" departSpeed="9.04" departDelay="0.26" arrival="163.00" arrivalLane="junctionEast_0" arrivalPos="492.80" arrivalSpeed="21.90" duration="61.00" routeLength="994.90" waitingTime="0.00" waitingCount="0" stopTime="0.00" timeLoss="16.20" rerouteNo="0" devices="tripinfo_westEastBottom0.7 ssm_westEastBottom0.7" vType="carCustom" speedFactor="0.92" vaporized=""/>
    <tripinfo id="southEast.10" depart="94.00" departLane="southJunction_0" departPos="5.10" departSpeed="13.97" departDelay="1.02" arrival="164.00" arrivalLane="junctionEast_1" arrivalPos="492.80" arrivalSpeed="21.01" duration="70.00" routeLength="989.53" waitingTime="0.00" waitingCount="0" stopTime="0.00" timeLoss="23.57" rerouteNo="0" devices="tripinfo_southEast.10 ssm_southEast.10" vType="carCustom" speedFactor="0.90" vaporized=""/>
    <tripinfo id="southNorth.13" depart="64.00" departLane="southJunction_1" departPos="5.10" departSpeed="12.13" departDelay="0.35" arrival="167.00" arrivalLane="junctionNorth_0" arrivalPos="492.80" arrivalSpeed="21.24" duration="103.00" routeLength="995.01" waitingTime="5.00" waitingCount="2" stopTime="0.00" timeLoss="57.89" rerouteNo="0" devices="tripinfo_southNorth.13 ssm_southNorth.13" vType="carCustom" speedFactor="0.99" vaporized=""/>
    <tripinfo id="westEastBottom0.8" depart="107.00" departLane="westJunction_0" departPos="5.10" departSpeed="18.57" departDelay="0.20" arrival="169.00" arrivalLane="junctionEast_0" arrivalPos="492.80" arrivalSpeed="21.43" duration="62.00" routeLength="994.90" waitingTime="0.00" waitingCount="0" stopTime="0.00" timeLoss="16.98" rerouteNo="0" devices="tripinfo_westEastBottom0.8 ssm_westEastBottom0.8" vType="carCustom" speedFactor="1.05" vaporized=""/>
    <tripinfo id="westEastTop.10" depart="67.00" departLane="westJunction_1" departPos="5.10" departSpeed="5.47" departDelay="3.32" arrival="170.00" arrivalLane="junctionEast_1" arrivalPos="492.80" arrivalSpeed="21.35" duration="103.00" routeLength="994.90" waitingTime="7.00" waitingCount="2" stopTime="0.00" timeLoss="57.66" rerouteNo="0" devices="tripinfo_westEastTop.10 ssm_westEastTop.10" vType="carCustom" speedFactor="1.08" vaporized=""/>
    <tripinfo id="southEast.11" depart="97.00" departLane="southJunction_0" departPos="5.10" departSpeed="9.45" departDelay="0.46" arrival="175.00" arrivalLane="junctionEast_0" arrivalPos="492.80" arrivalSpeed="21.59" duration="78.00" routeLength="989.53" waitingTime="0.00" waitingCount="0" stopTime="0.00" timeLoss="31.70" rerouteNo="0" devices="tripinfo_southEast.11 ssm_southEast.11" vType="carCustom" speedFactor="0.77" vaporized=""/>
    <tripinfo id="westEastTop.11" depart="76.00" departLane="westJunction_1" departPos="5.10" departSpeed="7.81" departDelay="0.47" arrival="176.00" arrivalLane="junctionEast_1" arrivalPos="492.80" arrivalSpeed="21.88" duration="100.00" routeLength="994.90" waitingTime="3.00" waitingCount="1" stopTime="0.00" timeLoss="54.25" rerouteNo="0" devices="tripinfo_westEastTop.11 ssm_westEastTop.11" vType="carCustom" speedFactor="1.03" vaporized=""/>
    <tripinfo id="southEast.12" depart="102.00" departLane="southJunction_0" departPos="5.10" departSpeed="10.40" departDelay="0.76" arrival="180.00" arrivalLane="junctionEast_0" arrivalPos="492.80" arrivalSpeed="22.06" duration="78.00" routeLength="989.53" waitingTime="0.00" waitingCount="0" stopTime="0.00" timeLoss="32.01" rerouteNo="0" devices="tripinfo_southEast.12 ssm_southEast.12" vType="carCustom" speedFactor="1.07" vaporized=""/>
    <tripinfo id="westEastTop.12" depart="87.00" departLane="westJunction_1" departPos="5.10" departSpeed="10.31" departDelay="0.08" arrival="181.00" arrivalLane="junctionEast_1" arrivalPos="492.80" arrivalSpeed="21.32" duration="94.00" routeLength="994.90" waitingTime="2.00" waitingCount="1" stopTime="0.00" timeLoss="48.77" rerouteNo="0" devices="tripinfo_westEastTop.12 ssm_westEastTop.12" vType="carCustom" speedFactor="0.91" vaporized=""/>
    <tripinfo id="westEastTop.13" depart="89.00" departLane="westJunction_1" departPos="5.10" departSpeed="14.17" departDelay="0.27" arrival="186.00" arrivalLane="junctionEast_1" arrivalPos="492.80" arrivalSpeed="21.87" duration="97.00" routeLength="994.90" waitingTime="0.00" waitingCount="0" stopTime="0.00" timeLoss="52.06" rerouteNo="0" devices="tripinfo_westEastTop.13 ssm_westEastTop.13" vType="carCustom" speedFactor="1.14" vaporized=""/>
    <tripinfo id="southNorth.14" depart="81.00" departLane="southJunction_1" departPos="5.10" departSpeed="13.10" departDelay="0.50" arrival="187.00" arrivalLane="junctionNorth_0" arrivalPos="492.80" arrivalSpeed="21.41" duration="106.00" routeLength="995.01" waitingTime="20.00" waitingCount="3" stopTime="0.00" timeLoss="60.91" rerouteNo="0" devices="tripinfo_southNorth.14 ssm_southNorth.14" vType="carCustom" speedFactor="0.98" vaporized=""/>
    <tripinfo id="westEastBottom0.9" depart="128.00" departLane="westJunction_0" departPos="5.10" departSpeed="15.54" departDelay="0.34" arrival="187.00" arrivalLane="junctionEast_0" arrivalPos="492.80" arrivalSpeed="21.87" duration="59.00" routeLength="994.90" waitingTime="0.00" waitingCount="0" stopTime="0.00" timeLoss="13.41" rerouteNo="0" devices="tripinfo_westEastBottom0.9 ssm_westEastBottom0.9" vType="carCustom" speedFactor="0.84" vaporized=""/>
    <tripinfo id="westEastTop.14" depart="91.00" departLane="westJunction_1" departPos="5.10" departSpeed="10.09" departDelay="0.19" arrival="191.00" arrivalLane="junctionEast_1" arrivalPos="492.80" arrivalSpeed="21.98" duration="100.00" routeLength="994.90" waitingTime="0.00" waitingCount="0" stopTime="0.00" timeLoss="55.04" rerouteNo="0" devices="tripinfo_westEastTop.14 ssm_westEastTop.14" vType="carCustom" speedFactor="0.98" vaporized=""/>
    <tripinfo id="westEastBottom0.10" depart="138.00" departLane="westJunction_0" departPos="5.10" departSpeed="15.41" departDelay="0.95" arrival="195.00" arrivalLane="junctionEast_0" arrivalPos="492.80" arrivalSpeed="21.98" duration="57.00" routeLength="994.90" waitingTime="0.00" waitingCount="0" stopTime="0.00" timeLoss="11.75" rerouteNo="0" devices="tripinfo_westEastBottom0.10 ssm_westEastBottom0.10" vType="carCustom" speedFactor="1.04" vaporized=""/>
    <tripinfo id="westEastTop.15" depart="93.00" departLane="westJunction_1" departPos="5.10" departSpeed="6.63" departDelay="1.13" arrival="196.00" arrivalLane="junctionEast_1" arrivalPos="492.80" arrivalSpeed="22.11" duration="103.00" routeLength="994.90" waitingTime="0.00" waitingCount="0" stopTime="0.00" timeLoss="58.16" rerouteNo="0" devices="tripinfo_westEastTop.15 ssm_westEastTop.15" vType="carCustom" speedFactor="0.90" vaporized=""/>
    <tripinfo id="southNorth.15" depart="87.00" departLane="southJunction_1" departPos="5.10" departSpeed="20.34" departDelay="0.16" arrival="201.00" arrivalLane="junctionNorth_0" arrivalPos="492.80" arrivalSpeed="21.01" duration="114.00" routeLength="995.01" waitingTime="24.00" waitingCount="2" stopTime="0.00" timeLoss="69.19" rerouteNo="0" devices="tripinfo_southNorth.15 ssm_southNorth.15" vType="carCustom" speedFactor="1.13" vaporized=""/>
    <tripinfo id="westEastTop.16" depart="98.00" departLane="westJunction_1" departPos="5.10" departSpeed="7.14" departDelay="0.85" arrival="202.00" arrivalLane="junctionEast_0" arrivalPos="492.80" arrivalSpeed="21.26" duration="104.00" routeLength="994.90" waitingTime="3.00" waitingCount="1" stopTime="0.00" timeLoss="58.28" rerouteNo="0" devices="tripinfo_westEastTop.16 ssm_westEastTop.16" vType="carCustom" speedFactor="0.90" vaporized=""/>
    <tripinfo id="westEastBottom0.14" depart="171.00" departLane="westJunction_0" departPos="5.10" departSpeed="16.60" departDelay="1.67" arrival="203.00" arrivalLane="junctionEast_0" arrivalPos="492.80" arrivalSpeed="11.08" duration="32.00" routeLength="994.90" waitingTime="0.00" waitingCount="0" stopTime="0.00" timeLoss="8.72" rerouteNo="0" devices="tripinfo_westEastBottom0.14 ssm_westEastBottom0.14" vType="carCustom" speedFactor="1.08" vaporized="teleport"/>
    <tripinfo id="westEastTop.17" depart="103.00" departLane="westJunction_1" departPos="5.10" departSpeed="7.49" departDelay="0.03" arrival="206.00" arrivalLane="junctionEast_0" arrivalPos="492.80" arrivalSpeed="21.92" duration="103.00" routeLength="994.90" waitingTime="0.00" waitingCount="0" stopTime="0.00" timeLoss="58.04" rerouteNo="0" devices="tripinfo_westEastTop.17 ssm_westEastTop.17" vType="carCustom" speedFactor="1.12" vaporized=""/>
    <tripinfo id="westEastBottom0.11" depart="147.00" departLane="westJunction_0" departPos="5.10" departSpeed="16.84" departDelay="0.90" arrival="207.00" arrivalLane="junctionEast_1" arrivalPos="492.80" arrivalSpeed="22.02" duration="60.00" routeLength="994.90" waitingTime="0.00" waitingCount="0" stopTime="0.00" timeLoss="14.85" rerouteNo="0" devices="tripinfo_westEastBottom0.11 ssm_westEastBottom0.11" vType="carCustom" speedFactor="0.95" vaporized=""/>
    <tripinfo id="southNorth.16" depart="89.00" departLane="southJunction_1" departPos="5.10" departSpeed="18.28" departDelay="0.75" arrival="210.00" arrivalLane="junctionNorth_0" arrivalPos="492.80" arrivalSpeed="21.55" duration="121.00" routeLength="995.01" waitingTime="26.00" waitingCount="3" stopTime="0.00" timeLoss="75.83" rerouteNo="0" devices="tripinfo_southNorth.16 ssm_southNorth.16" vType="carCustom" speedFactor="1.03" vaporized=""/>
    <tripinfo id="westEastTop.18" depart="105.00" departLane="westJunction_1" departPos="5.10" departSpeed="7.85" departDelay="0.69" arrival="212.00" arrivalLane="junctionEast_0" arrivalPos="492.80" arrivalSpeed="20.98" duration="107.00" routeLength="994.90" waitingTime="0.00" waitingCount="0" stopTime="0.00" timeLoss="61.33" rerouteNo="0" devices="tripinfo_westEastTop.18 ssm_westEastTop.18" vType="carCustom" speedFactor="1.12" vaporized=""/>
    <tripinfo id="southEast.13" depart="152.00" departLane="southJunction_0" departPos="5.10" departSpeed="22.22" departDelay="0.42" arrival="214.00" arrivalLane="junctionEast_1" arrivalPos="492.80" arrivalSpeed="22.02" duration="62.00" routeLength="989.53" waitingTime="0.00" waitingCount="0" stopTime="0.00" timeLoss="15.84" rerouteNo="0" devices="tripinfo_southEast.13 ssm_southEast.13" vType="carCustom" speedFactor="0.93" vaporized=""/>