<?xml version="1.0" encoding="UTF-8"?>

<!-- generated on 2025-04-29 08:07:42 by Eclipse SUMO sumo Version 1.20.0
<configuration xmlns:xsi="http://www.w3.org/2001/XMLSchema-instance" xsi:noNamespaceSchemaLocation="http://sumo.dlr.de/xsd/sumoConfiguration.xsd">

    <input>
        <net-file value="nets/2lane_unprotected_right/2lane_unprotected_right.net.xml"/>
        <route-files value="nets/2lane_unprotected_right/2lane_unprotected_right.rou.xml"/>
    </input>

    <output>
        <tripinfo-output value="traces/transs50f1_s50_f0.5_random/0142_tripinfo.xml"/>
        <collision-output value="traces/transs50f1_s50_f0.5_random/0142_collisions.xml"/>
        <statistic-output value="traces/transs50f1_s50_f0.5_random/0142_statistics.xml"/>
    </output>

    <processing>
        <collision.action value="teleport"/>
        <collision.check-junctions value="true"/>
        <time-to-teleport value="-1"/>
        <waiting-time-memory value="1000"/>
        <max-depart-delay value="-1"/>
        <default.speeddev value="0.1"/>
    </processing>

    <report>
        <no-warnings value="true"/>
    </report>

    <ssm_device>
        <device.ssm.probability value="1.0"/>
        <device.ssm.measures value="BR"/>
        <device.ssm.file value="/Users/finn/Code/CausalKnowledgeTransfer-4-SafeRL/traces/transs50f1_s50_f0.5_random/0142_ssm.xml"/>
    </ssm_device>

    <traci_server>
        <remote-port value="64165"/>
    </traci_server>

    <random_number>
        <random value="true"/>
    </random_number>

</configuration>
-->

<tripinfos xmlns:xsi="http://www.w3.org/2001/XMLSchema-instance" xsi:noNamespaceSchemaLocation="http://sumo.dlr.de/xsd/tripinfo_file.xsd">
    <tripinfo id="westEastBottom0.0" depart="5.00" departLane="westJunction_0" departPos="5.10" departSpeed="8.33" departDelay="0.86" arrival="136.00" arrivalLane="junctionEast_0" arrivalPos="492.80" arrivalSpeed="8.17" duration="131.00" routeLength="994.90" waitingTime="0.00" waitingCount="0" stopTime="0.00" timeLoss="10.64" rerouteNo="0" devices="tripinfo_westEastBottom0.0 ssm_westEastBottom0.0" vType="carCustom" speedFactor="0.93" vaporized=""/>
    <tripinfo id="westEastTop.0" depart="6.00" departLane="westJunction_1" departPos="5.10" departSpeed="8.33" departDelay="0.40" arrival="136.00" arrivalLane="junctionEast_1" arrivalPos="492.80" arrivalSpeed="8.00" duration="130.00" routeLength="994.90" waitingTime="0.00" waitingCount="0" stopTime="0.00" timeLoss="10.30" rerouteNo="0" devices="tripinfo_westEastTop.0 ssm_westEastTop.0" vType="carCustom" speedFactor="0.87" vaporized=""/>
    <tripinfo id="westEastTop.1" depart="16.00" departLane="westJunction_1" departPos="5.10" departSpeed="8.06" departDelay="0.88" arrival="146.00" arrivalLane="junctionEast_0" arrivalPos="492.80" arrivalSpeed="7.04" duration="130.00" routeLength="994.90" waitingTime="0.00" waitingCount="0" stopTime="0.00" timeLoss="10.21" rerouteNo="0" devices="tripinfo_westEastTop.1 ssm_westEastTop.1" vType="carCustom" speedFactor="1.06" vaporized=""/>
    <tripinfo id="southNorth.0" depart="12.00" departLane="southJunction_1" departPos="5.10" departSpeed="8.33" departDelay="0.53" arrival="150.00" arrivalLane="junctionNorth_0" arrivalPos="492.80" arrivalSpeed="8.30" duration="138.00" routeLength="995.01" waitingTime="6.00" waitingCount="1" stopTime="0.00" timeLoss="17.81" rerouteNo="0" devices="tripinfo_southNorth.0 ssm_southNorth.0" vType="carCustom" speedFactor="1.09" vaporized=""/>
    <tripinfo id="southNorth.1" depart="14.00" departLane="southJunction_1" departPos="5.10" departSpeed="7.92" departDelay="2.29" arrival="154.00" arrivalLane="junctionNorth_0" arrivalPos="492.80" arrivalSpeed="7.48" duration="140.00" routeLength="995.01" waitingTime="3.00" waitingCount="1" stopTime="0.00" timeLoss="19.78" rerouteNo="0" devices="tripinfo_southNorth.1 ssm_southNorth.1" vType="carCustom" speedFactor="0.72" vaporized=""/>
    <tripinfo id="westEastBottom0.1" depart="21.00" departLane="westJunction_0" departPos="5.10" departSpeed="7.66" departDelay="0.19" arrival="155.00" arrivalLane="junctionEast_0" arrivalPos="492.80" arrivalSpeed="8.06" duration="134.00" routeLength="994.90" waitingTime="1.00" waitingCount="1" stopTime="0.00" timeLoss="14.32" rerouteNo="0" devices="tripinfo_westEastBottom0.1 ssm_westEastBottom0.1" vType="carCustom" speedFactor="1.01" vaporized=""/>
    <tripinfo id="westEastBottom0.2" depart="24.00" departLane="westJunction_0" departPos="5.10" departSpeed="7.21" departDelay="2.98" arrival="155.00" arrivalLane="junctionEast_1" arrivalPos="492.80" arrivalSpeed="7.99" duration="131.00" routeLength="994.90" waitingTime="0.00" waitingCount="0" stopTime="0.00" timeLoss="11.28" rerouteNo="0" devices="tripinfo_westEastBottom0.2 ssm_westEastBottom0.2" vType="carCustom" speedFactor="0.97" vaporized=""/>
    <tripinfo id="southEast.0" depart="24.00" departLane="southJunction_0" departPos="5.10" departSpeed="8.33" departDelay="0.97" arrival="160.00" arrivalLane="junctionEast_0" arrivalPos="492.80" arrivalSpeed="7.87" duration="136.00" routeLength="989.53" waitingTime="3.00" waitingCount="1" stopTime="0.00" timeLoss="15.78" rerouteNo="0" devices="tripinfo_southEast.0 ssm_southEast.0" vType="carCustom" speedFactor="0.79" vaporized=""/>
    <tripinfo id="southNorth.2" depart="17.00" departLane="southJunction_1" departPos="5.10" departSpeed="5.84" departDelay="4.69" arrival="161.00" arrivalLane="junctionNorth_0" arrivalPos="492.80" arrivalSpeed="7.04" duration="144.00" routeLength="995.01" waitingTime="3.00" waitingCount="1" stopTime="0.00" timeLoss="23.74" rerouteNo="0" devices="tripinfo_southNorth.2 ssm_southNorth.2" vType="carCustom" speedFactor="1.03" vaporized=""/>
    <tripinfo id="southEast.1" depart="27.00" departLane="southJunction_0" departPos="5.10" departSpeed="7.91" departDelay="0.01" arrival="163.00" arrivalLane="junctionEast_0" arrivalPos="492.80" arrivalSpeed="7.12" duration="136.00" routeLength="989.53" waitingTime="1.00" waitingCount="1" stopTime="0.00" timeLoss="15.95" rerouteNo="0" devices="tripinfo_southEast.1 ssm_southEast.1" vType="carCustom" speedFactor="0.71" vaporized=""/>
    <tripinfo id="southNorth.3" depart="29.00" departLane="southJunction_1" departPos="5.10" departSpeed="7.67" departDelay="0.96" arrival="164.00" arrivalLane="junctionNorth_0" arrivalPos="492.80" arrivalSpeed="8.27" duration="135.00" routeLength="995.01" waitingTime="0.00" waitingCount="0" stopTime="0.00" timeLoss="14.90" rerouteNo="0" devices="tripinfo_southNorth.3 ssm_southNorth.3" vType="carCustom" speedFactor="1.05" vaporized=""/>
    <tripinfo id="westEastTop.2" depart="29.00" departLane="westJunction_1" departPos="5.10" departSpeed="8.13" departDelay="0.38" arrival="165.00" arrivalLane="junctionEast_1" arrivalPos="492.80" arrivalSpeed="7.45" duration="136.00" routeLength="994.90" waitingTime="3.00" waitingCount="1" stopTime="0.00" timeLoss="16.56" rerouteNo="0" devices="tripinfo_westEastTop.2 ssm_westEastTop.2" vType="carCustom" speedFactor="0.95" vaporized=""/>
    <tripinfo id="westEastBottom0.3" depart="27.00" departLane="westJunction_0" departPos="5.10" departSpeed="7.59" departDelay="0.66" arrival="167.00" arrivalLane="junctionEast_0" arrivalPos="492.80" arrivalSpeed="7.64" duration="140.00" routeLength="994.90" waitingTime="4.00" waitingCount="1" stopTime="0.00" timeLoss="19.66" rerouteNo="0" devices="tripinfo_westEastBottom0.3 ssm_westEastBottom0.3" vType="carCustom" speedFactor="0.90" vaporized=""/>
    <tripinfo id="westEastTop.3" depart="31.00" departLane="westJunction_1" departPos="5.10" departSpeed="7.44" departDelay="2.19" arrival="169.00" arrivalLane="junctionEast_1" arrivalPos="492.80" arrivalSpeed="8.17" duration="138.00" routeLength="994.90" waitingTime="0.00" waitingCount="0" stopTime="0.00" timeLoss="18.29" rerouteNo="0" devices="tripinfo_westEastTop.3 ssm_westEastTop.3" vType="carCustom" speedFactor="1.08" vaporized=""/>
    <tripinfo id="southNorth.4" depart="32.00" departLane="southJunction_1" departPos="5.10" departSpeed="7.92" departDelay="2.04" arrival="170.00" arrivalLane="junctionNorth_0" arrivalPos="492.80" arrivalSpeed="7.31" duration="138.00" routeLength="995.01" waitingTime="2.00" waitingCount="1" stopTime="0.00" timeLoss="17.88" rerouteNo="0" devices="tripinfo_southNorth.4 ssm_southNorth.4" vType="carCustom" speedFactor="0.93" vaporized=""/>
    <tripinfo id="southEast.2" depart="36.00" departLane="southJunction_0" departPos="5.10" departSpeed="6.86" departDelay="0.65" arrival="170.00" arrivalLane="junctionEast_0" arrivalPos="492.80" arrivalSpeed="7.51" duration="134.00" routeLength="989.53" waitingTime="2.00" waitingCount="1" stopTime="0.00" timeLoss="14.63" rerouteNo="0" devices="tripinfo_southEast.2 ssm_southEast.2" vType="carCustom" speedFactor="0.84" vaporized=""/>
    <tripinfo id="westEastTop.4" depart="34.00" departLane="westJunction_1" departPos="5.10" departSpeed="5.44" departDelay="2.75" arrival="175.00" arrivalLane="junctionEast_1" arrivalPos="492.80" arrivalSpeed="7.87" duration="141.00" routeLength="994.90" waitingTime="2.00" waitingCount="1" stopTime="0.00" timeLoss="21.25" rerouteNo="0" devices="tripinfo_westEastTop.4 ssm_westEastTop.4" vType="carCustom" speedFactor="0.93" vaporized=""/>
    <tripinfo id="westEastBottom0.4" depart="33.00" departLane="westJunction_0" departPos="5.10" departSpeed="7.10" departDelay="0.01" arrival="175.00" arrivalLane="junctionEast_0" arrivalPos="492.80" arrivalSpeed="7.28" duration="142.00" routeLength="994.90" waitingTime="6.00" waitingCount="2" stopTime="0.00" timeLoss="22.13" rerouteNo="0" devices="tripinfo_westEastBottom0.4 ssm_westEastBottom0.4" vType="carCustom" speedFactor="1.11" vaporized=""/>
    <tripinfo id="westEastBottom0.5" depart="38.00" departLane="westJunction_0" departPos="5.10" departSpeed="8.21" departDelay="0.02" arrival="178.00" arrivalLane="junctionEast_0" arrivalPos="492.80" arrivalSpeed="8.12" duration="140.00" routeLength="994.90" waitingTime="3.00" waitingCount="1" stopTime="0.00" timeLoss="20.22" rerouteNo="0" devices="tripinfo_westEastBottom0.5 ssm_westEastBottom0.5" vType="carCustom" speedFactor="1.14" vaporized=""/>
    <tripinfo id="southNorth.5" depart="35.00" departLane="southJunction_1" departPos="5.10" departSpeed="7.53" departDelay="3.82" arrival="180.00" arrivalLane="junctionNorth_0" arrivalPos="492.80" arrivalSpeed="7.09" duration="145.00" routeLength="995.01" waitingTime="5.00" waitingCount="1" stopTime="0.00" timeLoss="25.36" rerouteNo="0" devices="tripinfo_southNorth.5 ssm_southNorth.5" vType="carCustom" speedFactor="0.95" vaporized=""/>
    <tripinfo id="westEastTop.5" depart="37.00" departLane="westJunction_1" departPos="5.10" departSpeed="6.45" departDelay="5.02" arrival="180.00" arrivalLane="junctionEast_1" arrivalPos="492.80" arrivalSpeed="7.09" duration="143.00" routeLength="994.90" waitingTime="0.00" waitingCount="0" stopTime="0.00" timeLoss="22.96" rerouteNo="0" devices="tripinfo_westEastTop.5 ssm_westEastTop.5" vType="carCustom" speedFactor="1.06" vaporized=""/>
    <tripinfo id="southNorth.6" depart="38.00" departLane="southJunction_1" departPos="5.10" departSpeed="7.68" departDelay="5.49" arrival="184.00" arrivalLane="junctionNorth_0" arrivalPos="492.80" arrivalSpeed="8.16" duration="146.00" routeLength="995.01" waitingTime="3.00" waitingCount="1" stopTime="0.00" timeLoss="26.22" rerouteNo="0" devices="tripinfo_southNorth.6 ssm_southNorth.6" vType="carCustom" speedFactor="1.06" vaporized=""/>
    <tripinfo id="westEastTop.6" depart="40.00" departLane="westJunction_1" departPos="5.10" departSpeed="6.33" departDelay="6.30" arrival="185.00" arrivalLane="junctionEast_1" arrivalPos="492.80" arrivalSpeed="7.64" duration="145.00" routeLength="994.90" waitingTime="2.00" waitingCount="1" stopTime="0.00" timeLoss="24.76" rerouteNo="0" devices="tripinfo_westEastTop.6 ssm_westEastTop.6" vType="carCustom" speedFactor="0.91" vaporized=""/>
    <tripinfo id="westEastBottom0.6" depart="41.00" departLane="westJunction_0" departPos="5.10" departSpeed="7.60" departDelay="1.34" arrival="186.00" arrivalLane="junctionEast_0" arrivalPos="492.80" arrivalSpeed="7.89" duration="145.00" routeLength="994.90" waitingTime="5.00" waitingCount="2" stopTime="0.00" timeLoss="24.83" rerouteNo="0" devices="tripinfo_westEastBottom0.6 ssm_westEastBottom0.6" vType="carCustom" speedFactor="0.91" vaporized=""/>
    <tripinfo id="westEastTop.7" depart="50.00" departLane="westJunction_1" departPos="5.10" departSpeed="7.38" departDelay="0.32" arrival="189.00" arrivalLane="junctionEast_1" arrivalPos="492.80" arrivalSpeed="8.28" duration="139.00" routeLength="994.90" waitingTime="0.00" waitingCount="0" stopTime="0.00" timeLoss="18.66" rerouteNo="0" devices="tripinfo_westEastTop.7 ssm_westEastTop.7" vType="carCustom" speedFactor="0.77" vaporized=""/>
    <tripinfo id="westEastBottom0.7" depart="51.00" departLane="westJunction_0" departPos="5.10" departSpeed="7.53" departDelay="0.85" arrival="189.00" arrivalLane="junctionEast_0" arrivalPos="492.80" arrivalSpeed="7.82" duration="138.00" routeLength="994.90" waitingTime="0.00" waitingCount="0" stopTime="0.00" timeLoss="18.28" rerouteNo="0" devices="tripinfo_westEastBottom0.7 ssm_westEastBottom0.7" vType="carCustom" speedFactor="1.04" vaporized=""/>
    <tripinfo id="southNorth.7" depart="50.00" departLane="southJunction_1" departPos="5.10" departSpeed="7.69" departDelay="0.74" arrival="190.00" arrivalLane="junctionNorth_0" arrivalPos="492.80" arrivalSpeed="7.81" duration="140.00" routeLength="995.01" waitingTime="2.00" waitingCount="1" stopTime="0.00" timeLoss="20.48" rerouteNo="0" devices="tripinfo_southNorth.7 ssm_southNorth.7" vType="carCustom" speedFactor="1.17" vaporized=""/>
    <tripinfo id="southEast.3" depart="54.00" departLane="southJunction_0" departPos="5.10" departSpeed="7.72" departDelay="0.95" arrival="193.00" arrivalLane="junctionEast_0" arrivalPos="492.80" arrivalSpeed="7.91" duration="139.00" routeLength="989.53" waitingTime="3.00" waitingCount="1" stopTime="0.00" timeLoss="20.03" rerouteNo="0" devices="tripinfo_southEast.3 ssm_southEast.3" vType="carCustom" speedFactor="1.16" vaporized=""/>
    <tripinfo id="southNorth.8" depart="56.00" departLane="southJunction_1" departPos="5.10" departSpeed="8.29" departDelay="0.48" arrival="194.00" arrivalLane="junctionNorth_0" arrivalPos="492.80" arrivalSpeed="7.23" duration="138.00" routeLength="995.01" waitingTime="0.00" waitingCount="0" stopTime="0.00" timeLoss="18.35" rerouteNo="0" devices="tripinfo_southNorth.8 ssm_southNorth.8" vType="carCustom" speedFactor="1.03" vaporized=""/>
    <tripinfo id="westEastTop.8" depart="54.00" departLane="westJunction_1" departPos="5.10" departSpeed="7.58" departDelay="0.36" arrival="195.00" arrivalLane="junctionEast_1" arrivalPos="492.80" arrivalSpeed="8.08" duration="141.00" routeLength="994.90" waitingTime="3.00" waitingCount="1" stopTime="0.00" timeLoss="21.10" rerouteNo="0" devices="tripinfo_westEastTop.8 ssm_westEastTop.8" vType="carCustom" speedFactor="0.98" vaporized=""/>
    <tripinfo id="westEastBottom0.8" depart="57.00" departLane="westJunction_0" departPos="5.10" departSpeed="8.12" departDelay="0.17" arrival="197.00" arrivalLane="junctionEast_0" arrivalPos="492.80" arrivalSpeed="7.59" duration="140.00" routeLength="994.90" waitingTime="1.00" waitingCount="1" stopTime="0.00" timeLoss="19.88" rerouteNo="0" devices="tripinfo_westEastBottom0.8 ssm_westEastBottom0.8" vType="carCustom" speedFactor="1.06" vaporized=""/>
    <tripinfo id="southNorth.9" depart="60.00" departLane="southJunction_1" departPos="5.10" departSpeed="8.12" departDelay="0.70" arrival="200.00" arrivalLane="junctionNorth_0" arrivalPos="492.80" arrivalSpeed="7.30" duration="140.00" routeLength="995.01" waitingTime="3.00" waitingCount="1" stopTime="0.00" timeLoss="20.17" rerouteNo="0" devices="tripinfo_southNorth.9 ssm_southNorth.9" vType="carCustom" speedFactor="0.89" vaporized=""/>
    <tripinfo id="southNorth.10" depart="62.00" departLane="southJunction_1" departPos="5.10" departSpeed="7.51" departDelay="0.77" arrival="203.00" arrivalLane="junctionNorth_0" arrivalPos="492.80" arrivalSpeed="7.14" duration="141.00" routeLength="995.01" waitingTime="0.00" waitingCount="0" stopTime="0.00" timeLoss="21.46" rerouteNo="0" devices="tripinfo_southNorth.10 ssm_southNorth.10" vType="carCustom" speedFactor="0.94" vaporized=""/>
    <tripinfo id="westEastTop.9" depart="58.00" departLane="westJunction_1" departPos="5.10" departSpeed="7.98" departDelay="0.20" arrival="205.00" arrivalLane="junctionEast_1" arrivalPos="492.80" arrivalSpeed="8.06" duration="147.00" routeLength="994.90" waitingTime="6.00" waitingCount="2" stopTime="0.00" timeLoss="27.11" rerouteNo="0" devices="tripinfo_westEastTop.9 ssm_westEastTop.9" vType="carCustom" speedFactor="1.00" vaporized=""/>
    <tripinfo id="westEastBottom0.9" depart="76.00" departLane="westJunction_0" departPos="5.10" departSpeed="7.88" departDelay="0.69" arrival="206.00" arrivalLane="junctionEast_0" arrivalPos="492.80" arrivalSpeed="7.45" duration="130.00" routeLength="994.90" waitingTime="0.00" waitingCount="0" stopTime="0.00" timeLoss="10.37" rerouteNo="0" devices="tripinfo_westEastBottom0.9 ssm_westEastBottom0.9" vType="carCustom" speedFactor="0.88" vaporized=""/>
    <tripinfo id="westEastTop.10" depart="66.00" departLane="westJunction_1" departPos="5.10" departSpeed="7.15" departDelay="0.19" arrival="210.00" arrivalLane="junctionEast_0" arrivalPos="492.80" arrivalSpeed="8.31" duration="144.00" routeLength="994.90" waitingTime="4.00" waitingCount="1" stopTime="0.00" timeLoss="23.69" rerouteNo="0" devices="tripinfo_westEastTop.10 ssm_westEastTop.10" vType="carCustom" speedFactor="0.86" vaporized=""/>
    <tripinfo id="westEastTop.11" depart="69.00" departLane="westJunction_1" departPos="5.10" departSpeed="7.76" departDelay="2.44" arrival="212.00" arrivalLane="junctionEast_1" arrivalPos="492.80" arrivalSpeed="8.16" duration="143.00" routeLength="994.90" waitingTime="2.00" waitingCount="1" stopTime="0.00" timeLoss="23.20" rerouteNo="0" devices="tripinfo_westEastTop.11 ssm_westEastTop.11" vType="carCustom" speedFactor="1.04" vaporized=""/>
    <tripinfo id="southEast.4" depart="75.00" departLane="southJunction_0" departPos="5.10" departSpeed="7.81" departDelay="0.77" arrival="213.00" arrivalLane="junctionEast_0" arrivalPos="492.80" arrivalSpeed="7.46" duration="138.00" routeLength="989.53" waitingTime="3.00" waitingCount="1" stopTime="0.00" timeLoss="18.71" rerouteNo="0" devices="tripinfo_southEast.4 ssm_southEast.4" vType="carCustom" speedFactor="1.09" vaporized=""/>
    <tripinfo id="westEastTop.12" depart="72.00" departLane="westJunction_1" departPos="5.10" departSpeed="7.00" departDelay="4.71" arrival="216.00" arrivalLane="junctionEast_0" arrivalPos="492.80" arrivalSpeed="7.57" duration="144.00" routeLength="994.90" waitingTime="1.00" waitingCount="1" stopTime="0.00" timeLoss="24.45" rerouteNo="0" devices="tripinfo_westEastTop.12 ssm_westEastTop.12" vType="carCustom" speedFactor="0.90" vaporized=""/>
    <tripinfo id="westEastTop.13" depart="75.00" departLane="westJunction_1" departPos="5.10" departSpeed="6.93" departDelay="5.81" arrival="220.00" arrivalLane="junctionEast_0" arrivalPos="492.80" arrivalSpeed="7.28" duration="145.00" routeLength="994.90" waitingTime="0.00" waitingCount="0" stopTime="0.00" timeLoss="25.24" rerouteNo="0" devices="tripinfo_westEastTop.13 ssm_westEastTop.13" vType="carCustom" speedFactor="0.82" vaporized=""/>
    <tripinfo id="westEastTop.14" depart="83.00" departLane="westJunction_1" departPos="5.10" departSpeed="6.40" departDelay="0.26" arrival="220.00" arrivalLane="junctionEast_1" arrivalPos="492.80" arrivalSpeed="7.97" duration="137.00" routeLength="994.90" waitingTime="0.00" waitingCount="0" stopTime="0.00" timeLoss="16.98" rerouteNo="0" devices="tripinfo_westEastTop.14 ssm_westEastTop.14" vType="carCustom" speedFactor="0.94" vaporized=""/>
    <tripinfo id="southEast.5" depart="84.00" departLane="southJunction_0" departPos="5.10" departSpeed="8.03" departDelay="0.43" arrival="223.00" arrivalLane="junctionEast_0" arrivalPos="492.80" arrivalSpeed="8.28" duration="139.00" routeLength="989.53" waitingTime="4.00" waitingCount="1" stopTime="0.00" timeLoss="19.33" rerouteNo="0" devices="tripinfo_southEast.5 ssm_southEast.5" vType="carCustom" speedFactor="0.79" vaporized=""/>
    <tripinfo id="westEastTop.15" depart="87.00" departLane="westJunction_1" departPos="5.10" departSpeed="7.71" departDelay="0.02" arrival="224.00" arrivalLane="junctionEast_1" arrivalPos="492.80" arrivalSpeed="7.15" duration="137.00" routeLength="994.90" waitingTime="0.00" waitingCount="0" stopTime="0.00" timeLoss="17.07" rerouteNo="0" devices="tripinfo_westEastTop.15 ssm_westEastTop.15" vType="carCustom" speedFactor="0.97" vaporized=""/>
    <tripinfo id="westEastTop.16" depart="90.00" departLane="westJunction_1" departPos="5.10" departSpeed="8.25" departDelay="1.93" arrival="227.00" arrivalLane="junctionEast_0" arrivalPos="492.80" arrivalSpeed="7.68" duration="137.00" routeLength="994.90" waitingTime="0.00" waitingCount="0" stopTime="0.00" timeLoss="16.91" rerouteNo="0" devices="tripinfo_westEastTop.16 ssm_westEastTop.16" vType="carCustom" speedFactor="1.16" vaporized=""/>
    <tripinfo id="southNorth.11" depart="83.00" departLane="southJunction_1" departPos="5.10" departSpeed="6.61" departDelay="0.38" arrival="231.00" arrivalLane="junctionNorth_0" arrivalPos="492.80" arrivalSpeed="7.98" duration="148.00" routeLength="995.01" waitingTime="15.00" waitingCount="1" stopTime="0.00" timeLoss="28.20" rerouteNo="0" devices="tripinfo_southNorth.11 ssm_southNorth.11" vType="carCustom" speedFactor="0.87" vaporized=""/>
    <tripinfo id="southEast.6" depart="88.00" departLane="southJunction_0" departPos="5.10" departSpeed="8.03" departDelay="0.75" arrival="231.00" arrivalLane="junctionEast_0" arrivalPos="492.80" arrivalSpeed="7.48" duration="143.00" routeLength="989.53" waitingTime="5.00" waitingCount="1" stopTime="0.00" timeLoss="23.43" rerouteNo="0" devices="tripinfo_southEast.6 ssm_southEast.6" vType="carCustom" speedFactor="0.78" vaporized=""/>
    <tripinfo id="southNorth.12" depart="93.00" departLane="southJunction_1" departPos="5.10" departSpeed="7.53" departDelay="0.84" arrival="234.00" arrivalLane="junctionNorth_0" arrivalPos="492.80" arrivalSpeed="7.06" duration="141.00" routeLength="995.01" waitingTime="6.00" waitingCount="1" stopTime="0.00" timeLoss="21.54" rerouteNo="0" devices="tripinfo_southNorth.12 ssm_southNorth.12" vType="carCustom" speedFactor="0.91" vaporized=""/>
    <tripinfo id="westEastTop.17" depart="92.00" departLane="westJunction_1" departPos="5.10" departSpeed="7.79" departDelay="1.40" arrival="236.00" arrivalLane="junctionEast_1" arrivalPos="492.80" arrivalSpeed="7.34" duration="144.00" routeLength="994.90" waitingTime="4.00" waitingCount="1" stopTime="0.00" timeLoss="24.46" rerouteNo="0" devices="tripinfo_westEastTop.17 ssm_westEastTop.17" vType="carCustom" speedFactor="1.07" vaporized=""/>
    <tripinfo id="westEastBottom0.10" depart="106.00" departLane="westJunction_0" departPos="5.10" departSpeed="8.14" departDelay="0.11" arrival="236.00" arrivalLane="junctionEast_0" arrivalPos="492.80" arrivalSpeed="7.06" duration="130.00" routeLength="994.90" waitingTime="0.00" waitingCount="0" stopTime="0.00" timeLoss="10.52" rerouteNo="0" devices="tripinfo_westEastBottom0.10 ssm_westEastBottom0.10" vType="carCustom" speedFactor="1.14" vaporized=""/>
    <tripinfo id="westEastTop.18" depart="98.00" departLane="westJunction_1" departPos="5.10" departSpeed="5.96" departDelay="0.33" arrival="240.00" arrivalLane="junctionEast_1" arrivalPos="492.80" arrivalSpeed="8.01" duration="142.00" routeLength="994.90" waitingTime="0.00" waitingCount="0" stopTime="0.00" timeLoss="22.42" rerouteNo="0" devices="tripinfo_westEastTop.18 ssm_westEastTop.18" vType="carCustom" speedFactor="1.12" vaporized=""/>
    <tripinfo id="southEast.7" depart="103.00" departLane="southJunction_0" departPos="5.10" departSpeed="7.32" departDelay="0.36" arrival="242.00" arrivalLane="junctionEast_0" arrivalPos="492.80" arrivalSpeed="7.25" duration="139.00" routeLength="989.53" waitingTime="5.00" waitingCount="1" stopTime="0.00" timeLoss="19.40" rerouteNo="0" devices="tripinfo_southEast.7 ssm_southEast.7" vType="carCustom" speedFactor="1.10" vaporized=""/>
    <tripinfo id="westEastTop.19" depart="100.00" departLane="westJunction_1" departPos="5.10" departSpeed="8.14" departDelay="2.15" arrival="245.00" arrivalLane="junctionEast_0" arrivalPos="492.80" arrivalSpeed="8.23" duration="145.00" routeLength="994.90" waitingTime="0.00" waitingCount="0" stopTime="0.00" timeLoss="25.07" rerouteNo="0" devices="tripinfo_westEastTop.19 ssm_westEastTop.19" vType="carCustom" speedFactor="1.04" vaporized=""/>
    <tripinfo id="westEastTop.20" depart="103.00" departLane="westJunction_1" departPos="5.10" departSpeed="5.70" departDelay="3.78" arrival="247.00" arrivalLane="junctionEast_1" arrivalPos="492.80" arrivalSpeed="7.46" duration="144.00" routeLength="994.90" waitingTime="0.00" waitingCount="0" stopTime="0.00" timeLoss="23.84" rerouteNo="0" devices="tripinfo_westEastTop.20 ssm_westEastTop.20" vType="carCustom" speedFactor="0.92" vaporized=""/>
    <tripinfo id="westEastBottom0.11" depart="116.00" departLane="westJunction_0" departPos="5.10" departSpeed="7.46" departDelay="0.91" arrival="248.00" arrivalLane="junctionEast_0" arrivalPos="492.80" arrivalSpeed="7.83" duration="132.00" routeLength="994.90" waitingTime="0.00" waitingCount="0" stopTime="0.00" timeLoss="12.30" rerouteNo="0" devices="tripinfo_westEastBottom0.11 ssm_westEastBottom0.11" vType="carCustom" speedFactor="0.86" vaporized=""/>
    <tripinfo id="westEastTop.21" depart="106.00" departLane="westJunction_1" departPos="5.10" departSpeed="6.54" departDelay="1.04" arrival="252.00" arrivalLane="junctionEast_0" arrivalPos="492.80" arrivalSpeed="7.05" duration="146.00" routeLength="994.90" waitingTime="0.00" waitingCount="0" stopTime="0.00" timeLoss="25.83" rerouteNo="0" devices="tripinfo_westEastTop.21 ssm_westEastTop.21" vType="carCustom" speedFactor="1.08" vaporized=""/>
    <tripinfo id="westEastTop.22" depart="110.00" departLane="westJunction_1" departPos="5.10" departSpeed="5.62" departDelay="0.75" arrival="252.00" arrivalLane="junctionEast_1" arrivalPos="492.80" arrivalSpeed="7.38" duration="142.00" routeLength="994.90" waitingTime="0.00" waitingCount="0" stopTime="0.00" timeLoss="22.46" rerouteNo="0" devices="tripinfo_westEastTop.22 ssm_westEastTop.22" vType="carCustom" speedFactor="0.81" vaporized=""/>
    <tripinfo id="westEastBottom0.12" depart="123.00" departLane="westJunction_0" departPos="5.10" departSpeed="8.28" departDelay="0.62" arrival="255.00" arrivalLane="junctionEast_0" arrivalPos="492.80" arrivalSpeed="8.14" duration="132.00" routeLength="994.90" waitingTime="0.00" waitingCount="0" stopTime="0.00" timeLoss="11.98" rerouteNo="0" devices="tripinfo_westEastBottom0.12 ssm_westEastBottom0.12" vType="carCustom" speedFactor="1.09" vaporized=""/>
    <tripinfo id="westEastTop.23" depart="113.00" departLane="westJunction_1" departPos="5.10" departSpeed="5.76" departDelay="1.94" arrival="256.00" arrivalLane="junctionEast_0" arrivalPos="492.80" arrivalSpeed="7.56" duration="143.00" routeLength="994.90" waitingTime="0.00" waitingCount="0" stopTime="0.00" timeLoss="22.91" rerouteNo="0" devices="tripinfo_westEastTop.23 ssm_westEastTop.23" vType="carCustom" speedFactor="0.99" vaporized=""/>
    <tripinfo id="southNorth.13" depart="106.00" departLane="southJunction_1" departPos="5.10" departSpeed="7.67" departDelay="0.58" arrival="257.00" arrivalLane="junctionNorth_0" arrivalPos="492.80" arrivalSpeed="7.56" duration="151.00" routeLength="995.01" waitingTime="17.00" waitingCount="1" stopTime="0.00" timeLoss="30.73" rerouteNo="0" devices="tripinfo_southNorth.13 ssm_southNorth.13" vType="carCustom" speedFactor="0.95" vaporized=""/>
    <tripinfo id="southEast.8" depart="125.00" departLane="southJunction_0" departPos="5.10" departSpeed="8.03" departDelay="0.20" arrival="258.00" arrivalLane="junctionEast_0" arrivalPos="492.80" arrivalSpeed="7.58" duration="133.00" routeLength="989.53" waitingTime="0.00" waitingCount="0" stopTime="0.00" timeLoss="13.94" rerouteNo="0" devices="tripinfo_southEast.8 ssm_southEast.8" vType="carCustom" speedFactor="1.04" vaporized=""/>
    <tripinfo id="westEastTop.24" depart="116.00" departLane="westJunction_1" departPos="5.10" departSpeed="6.64" departDelay="2.75" arrival="261.00" arrivalLane="junctionEast_1" arrivalPos="492.80" arrivalSpeed="7.99" duration="145.00" routeLength="994.90" waitingTime="1.00" waitingCount="1" stopTime="0.00" timeLoss="25.42" rerouteNo="0" devices="tripinfo_westEastTop.24 ssm_westEastTop.24" vType="carCustom" speedFactor="0.94" vaporized=""/>
    <tripinfo id="westEastBottom0.13" depart="133.00" departLane="westJunction_0" departPos="5.10" departSpeed="7.36" departDelay="0.44" arrival="262.00" arrivalLane="junctionEast_0" arrivalPos="492.80" arrivalSpeed="7.43" duration="129.00" routeLength="994.90" waitingTime="0.00" waitingCount="0" stopTime="0.00" timeLoss="9.50" rerouteNo="0" devices="tripinfo_westEastBottom0.13 ssm_westEastBottom0.13" vType="carCustom" speedFactor="1.06" vaporized=""/>
    <tripinfo id="westEastTop.25" depart="125.00" departLane="westJunction_1" departPos="5.10" departSpeed="7.15" departDelay="0.29" arrival="265.00" arrivalLane="junctionEast_1" arrivalPos="492.80" arrivalSpeed="7.81" duration="140.00" routeLength="994.90" waitingTime="0.00" waitingCount="0" stopTime="0.00" timeLoss="19.95" rerouteNo="0" devices="tripinfo_westEastTop.25 ssm_westEastTop.25" vType="carCustom" speedFactor="1.04" vaporized=""/>