<?xml version="1.0" encoding="UTF-8"?>

<!-- generated on 2025-04-29 08:12:29 by Eclipse SUMO sumo Version 1.20.0
<configuration xmlns:xsi="http://www.w3.org/2001/XMLSchema-instance" xsi:noNamespaceSchemaLocation="http://sumo.dlr.de/xsd/sumoConfiguration.xsd">

    <input>
        <net-file value="nets/2lane_unprotected_right/2lane_unprotected_right.net.xml"/>
        <route-files value="nets/2lane_unprotected_right/2lane_unprotected_right.rou.xml"/>
    </input>

    <output>
        <tripinfo-output value="traces/transs50f1_s50_f0.5_random/0145_tripinfo.xml"/>
        <collision-output value="traces/transs50f1_s50_f0.5_random/0145_collisions.xml"/>
        <statistic-output value="traces/transs50f1_s50_f0.5_random/0145_statistics.xml"/>
    </output>

    <processing>
        <collision.action value="teleport"/>
        <collision.check-junctions value="true"/>
        <time-to-teleport value="-1"/>
        <waiting-time-memory value="1000"/>
        <max-depart-delay value="-1"/>
        <default.speeddev value="0.1"/>
    </processing>

    <report>
        <no-warnings value="true"/>
    </report>

    <ssm_device>
        <device.ssm.probability value="1.0"/>
        <device.ssm.measures value="BR"/>
        <device.ssm.file value="/Users/finn/Code/CausalKnowledgeTransfer-4-SafeRL/traces/transs50f1_s50_f0.5_random/0145_ssm.xml"/>
    </ssm_device>

    <traci_server>
        <remote-port value="64204"/>
    </traci_server>

    <random_number>
        <random value="true"/>
    </random_number>

</configuration>
-->

<tripinfos xmlns:xsi="http://www.w3.org/2001/XMLSchema-instance" xsi:noNamespaceSchemaLocation="http://sumo.dlr.de/xsd/tripinfo_file.xsd">
    <tripinfo id="westEastBottom0.0" depart="2.00" departLane="westJunction_0" departPos="5.10" departSpeed="27.78" departDelay="0.18" arrival="39.00" arrivalLane="junctionEast_0" arrivalPos="492.80" arrivalSpeed="27.19" duration="37.00" routeLength="994.90" waitingTime="0.00" waitingCount="0" stopTime="0.00" timeLoss="0.73" rerouteNo="0" devices="tripinfo_westEastBottom0.0 ssm_westEastBottom0.0" vType="carCustom" speedFactor="1.02" vaporized=""/>
    <tripinfo id="westEastTop.0" depart="6.00" departLane="westJunction_1" departPos="5.10" departSpeed="27.78" departDelay="0.97" arrival="43.00" arrivalLane="junctionEast_1" arrivalPos="492.80" arrivalSpeed="27.08" duration="37.00" routeLength="994.90" waitingTime="0.00" waitingCount="0" stopTime="0.00" timeLoss="0.76" rerouteNo="0" devices="tripinfo_westEastTop.0 ssm_westEastTop.0" vType="carCustom" speedFactor="0.96" vaporized=""/>
    <tripinfo id="southEast.0" depart="5.00" departLane="southJunction_0" departPos="5.10" departSpeed="17.51" departDelay="0.55" arrival="58.00" arrivalLane="junctionEast_1" arrivalPos="492.80" arrivalSpeed="27.05" duration="53.00" routeLength="989.53" waitingTime="0.00" waitingCount="0" stopTime="0.00" timeLoss="14.93" rerouteNo="0" devices="tripinfo_southEast.0 ssm_southEast.0" vType="carCustom" speedFactor="0.96" vaporized=""/>
    <tripinfo id="westEastBottom0.1" depart="17.00" departLane="westJunction_0" departPos="5.10" departSpeed="27.46" departDelay="0.68" arrival="68.00" arrivalLane="junctionEast_1" arrivalPos="492.80" arrivalSpeed="27.44" duration="51.00" routeLength="994.90" waitingTime="0.00" waitingCount="0" stopTime="0.00" timeLoss="14.41" rerouteNo="0" devices="tripinfo_westEastBottom0.1 ssm_westEastBottom0.1" vType="carCustom" speedFactor="0.96" vaporized=""/>
    <tripinfo id="westEastTop.1" depart="8.00" departLane="westJunction_1" departPos="5.10" departSpeed="27.70" departDelay="1.89" arrival="78.00" arrivalLane="junctionEast_1" arrivalPos="492.80" arrivalSpeed="27.46" duration="70.00" routeLength="994.90" waitingTime="1.00" waitingCount="1" stopTime="0.00" timeLoss="33.52" rerouteNo="0" devices="tripinfo_westEastTop.1 ssm_westEastTop.1" vType="carCustom" speedFactor="1.06" vaporized=""/>
    <tripinfo id="southEast.1" depart="9.00" departLane="southJunction_0" departPos="5.10" departSpeed="18.91" departDelay="0.75" arrival="85.00" arrivalLane="junctionEast_1" arrivalPos="492.80" arrivalSpeed="26.75" duration="76.00" routeLength="989.53" waitingTime="0.00" waitingCount="0" stopTime="0.00" timeLoss="39.55" rerouteNo="0" devices="tripinfo_southEast.1 ssm_southEast.1" vType="carCustom" speedFactor="0.95" vaporized=""/>
    <tripinfo id="westEastTop.2" depart="15.00" departLane="westJunction_1" departPos="5.10" departSpeed="23.22" departDelay="0.07" arrival="91.00" arrivalLane="junctionEast_1" arrivalPos="492.80" arrivalSpeed="27.27" duration="76.00" routeLength="994.90" waitingTime="0.00" waitingCount="0" stopTime="0.00" timeLoss="39.66" rerouteNo="0" devices="tripinfo_westEastTop.2 ssm_westEastTop.2" vType="carCustom" speedFactor="1.05" vaporized=""/>
    <tripinfo id="westEastTop.3" depart="17.00" departLane="westJunction_1" departPos="5.10" departSpeed="21.94" departDelay="1.86" arrival="101.00" arrivalLane="junctionEast_1" arrivalPos="492.80" arrivalSpeed="27.73" duration="84.00" routeLength="994.90" waitingTime="0.00" waitingCount="0" stopTime="0.00" timeLoss="48.04" rerouteNo="0" devices="tripinfo_westEastTop.3 ssm_westEastTop.3" vType="carCustom" speedFactor="0.97" vaporized=""/>
    <tripinfo id="southEast.3" depart="27.00" departLane="southJunction_0" departPos="5.10" departSpeed="10.94" departDelay="0.84" arrival="106.00" arrivalLane="junctionEast_1" arrivalPos="492.80" arrivalSpeed="24.73" duration="79.00" routeLength="989.53" waitingTime="0.00" waitingCount="0" stopTime="0.00" timeLoss="42.08" rerouteNo="0" devices="tripinfo_southEast.3 ssm_southEast.3" vType="carCustom" speedFactor="0.89" vaporized=""/>
    <tripinfo id="westEastBottom0.2" depart="34.00" departLane="westJunction_0" departPos="5.10" departSpeed="16.98" departDelay="3.15" arrival="116.00" arrivalLane="junctionEast_1" arrivalPos="492.80" arrivalSpeed="26.59" duration="82.00" routeLength="994.90" waitingTime="0.00" waitingCount="0" stopTime="0.00" timeLoss="45.70" rerouteNo="0" devices="tripinfo_westEastBottom0.2 ssm_westEastBottom0.2" vType="carCustom" speedFactor="0.92" vaporized=""/>
    <tripinfo id="southEast.2" depart="25.00" departLane="southJunction_0" departPos="5.10" departSpeed="9.73" departDelay="0.40" arrival="118.00" arrivalLane="junctionEast_1" arrivalPos="492.80" arrivalSpeed="20.71" duration="93.00" routeLength="989.53" waitingTime="0.00" waitingCount="0" stopTime="0.00" timeLoss="55.41" rerouteNo="0" devices="tripinfo_southEast.2 ssm_southEast.2" vType="carCustom" speedFactor="1.01" vaporized=""/>
    <tripinfo id="westEastTop.4" depart="19.00" departLane="westJunction_1" departPos="5.10" departSpeed="20.66" departDelay="1.44" arrival="127.00" arrivalLane="junctionEast_1" arrivalPos="492.80" arrivalSpeed="27.03" duration="108.00" routeLength="994.90" waitingTime="0.00" waitingCount="0" stopTime="0.00" timeLoss="72.04" rerouteNo="0" devices="tripinfo_westEastTop.4 ssm_westEastTop.4" vType="carCustom" speedFactor="1.10" vaporized=""/>
    <tripinfo id="westEastTop.5" depart="21.00" departLane="westJunction_1" departPos="5.10" departSpeed="19.38" departDelay="2.83" arrival="135.00" arrivalLane="junctionEast_1" arrivalPos="492.80" arrivalSpeed="27.43" duration="114.00" routeLength="994.90" waitingTime="0.00" waitingCount="0" stopTime="0.00" timeLoss="78.17" rerouteNo="0" devices="tripinfo_westEastTop.5 ssm_westEastTop.5" vType="carCustom" speedFactor="0.78" vaporized=""/>
    <tripinfo id="southEast.4" depart="30.00" departLane="southJunction_0" departPos="5.10" departSpeed="11.31" departDelay="0.11" arrival="137.00" arrivalLane="junctionEast_1" arrivalPos="492.80" arrivalSpeed="22.26" duration="107.00" routeLength="989.53" waitingTime="0.00" waitingCount="0" stopTime="0.00" timeLoss="69.71" rerouteNo="0" devices="tripinfo_southEast.4 ssm_southEast.4" vType="carCustom" speedFactor="0.81" vaporized=""/>
    <tripinfo id="westEastBottom0.3" depart="56.00" departLane="westJunction_0" departPos="5.10" departSpeed="17.90" departDelay="0.16" arrival="147.00" arrivalLane="junctionEast_1" arrivalPos="492.80" arrivalSpeed="26.79" duration="91.00" routeLength="994.90" waitingTime="0.00" waitingCount="0" stopTime="0.00" timeLoss="54.58" rerouteNo="0" devices="tripinfo_westEastBottom0.3 ssm_westEastBottom0.3" vType="carCustom" speedFactor="0.93" vaporized=""/>
    <tripinfo id="southEast.5" depart="33.00" departLane="southJunction_0" departPos="5.10" departSpeed="9.39" departDelay="0.78" arrival="150.00" arrivalLane="junctionEast_1" arrivalPos="492.80" arrivalSpeed="23.18" duration="117.00" routeLength="989.53" waitingTime="0.00" waitingCount="0" stopTime="0.00" timeLoss="79.95" rerouteNo="0" devices="tripinfo_southEast.5 ssm_southEast.5" vType="carCustom" speedFactor="1.05" vaporized=""/>
    <tripinfo id="westEastTop.6" depart="26.00" departLane="westJunction_1" departPos="5.10" departSpeed="16.18" departDelay="0.80" arrival="160.00" arrivalLane="junctionEast_1" arrivalPos="492.80" arrivalSpeed="26.94" duration="134.00" routeLength="994.90" waitingTime="0.00" waitingCount="0" stopTime="0.00" timeLoss="97.38" rerouteNo="0" devices="tripinfo_westEastTop.6 ssm_westEastTop.6" vType="carCustom" speedFactor="1.08" vaporized=""/>
    <tripinfo id="westEastBottom0.4" depart="79.00" departLane="westJunction_0" departPos="5.10" departSpeed="12.91" departDelay="0.27" arrival="165.00" arrivalLane="junctionEast_1" arrivalPos="492.80" arrivalSpeed="26.16" duration="86.00" routeLength="994.90" waitingTime="0.00" waitingCount="0" stopTime="0.00" timeLoss="50.02" rerouteNo="0" devices="tripinfo_westEastBottom0.4 ssm_westEastBottom0.4" vType="carCustom" speedFactor="1.13" vaporized=""/>
    <tripinfo id="southNorth.0" depart="29.00" departLane="southJunction_1" departPos="5.10" departSpeed="12.06" departDelay="0.94" arrival="167.00" arrivalLane="junctionNorth_0" arrivalPos="492.80" arrivalSpeed="26.99" duration="138.00" routeLength="995.01" waitingTime="57.00" waitingCount="1" stopTime="0.00" timeLoss="102.18" rerouteNo="0" devices="tripinfo_southNorth.0 ssm_southNorth.0" vType="carCustom" speedFactor="1.09" vaporized=""/>
    <tripinfo id="westEastBottom0.6" depart="106.00" departLane="westJunction_0" departPos="5.10" departSpeed="13.36" departDelay="0.06" arrival="169.00" arrivalLane="junctionEast_0" arrivalPos="492.80" arrivalSpeed="4.73" duration="63.00" routeLength="994.90" waitingTime="0.00" waitingCount="0" stopTime="0.00" timeLoss="44.89" rerouteNo="0" devices="tripinfo_westEastBottom0.6 ssm_westEastBottom0.6" vType="carCustom" speedFactor="0.79" vaporized="teleport"/>
    <tripinfo id="westEastTop.7" depart="28.00" departLane="westJunction_1" departPos="5.10" departSpeed="14.90" departDelay="1.64" arrival="173.00" arrivalLane="junctionEast_1" arrivalPos="492.80" arrivalSpeed="22.37" duration="145.00" routeLength="994.90" waitingTime="0.00" waitingCount="0" stopTime="0.00" timeLoss="108.62" rerouteNo="0" devices="tripinfo_westEastTop.7 ssm_westEastTop.7" vType="carCustom" speedFactor="1.17" vaporized=""/>
    <tripinfo id="southEast.6" depart="51.00" departLane="southJunction_0" departPos="5.10" departSpeed="7.88" departDelay="0.41" arrival="174.00" arrivalLane="junctionEast_1" arrivalPos="492.80" arrivalSpeed="20.26" duration="123.00" routeLength="989.53" waitingTime="0.00" waitingCount="0" stopTime="0.00" timeLoss="85.31" rerouteNo="0" devices="tripinfo_southEast.6 ssm_southEast.6" vType="carCustom" speedFactor="1.02" vaporized=""/>
    <tripinfo id="southNorth.1" depart="35.00" departLane="southJunction_1" departPos="5.10" departSpeed="8.22" departDelay="0.81" arrival="181.00" arrivalLane="junctionNorth_0" arrivalPos="492.80" arrivalSpeed="26.82" duration="146.00" routeLength="995.01" waitingTime="25.00" waitingCount="2" stopTime="0.00" timeLoss="109.80" rerouteNo="0" devices="tripinfo_southNorth.1 ssm_southNorth.1" vType="carCustom" speedFactor="0.93" vaporized=""/>
    <tripinfo id="westEastTop.8" depart="30.00" departLane="westJunction_1" departPos="5.10" departSpeed="13.62" departDelay="3.22" arrival="183.00" arrivalLane="junctionEast_1" arrivalPos="492.80" arrivalSpeed="26.69" duration="153.00" routeLength="994.90" waitingTime="0.00" waitingCount="0" stopTime="0.00" timeLoss="116.60" rerouteNo="0" devices="tripinfo_westEastTop.8 ssm_westEastTop.8" vType="carCustom" speedFactor="0.93" vaporized=""/>
    <tripinfo id="southEast.7" depart="56.00" departLane="southJunction_0" departPos="5.10" departSpeed="8.84" departDelay="0.13" arrival="185.00" arrivalLane="junctionEast_1" arrivalPos="492.80" arrivalSpeed="20.54" duration="129.00" routeLength="989.53" waitingTime="0.00" waitingCount="0" stopTime="0.00" timeLoss="91.75" rerouteNo="0" devices="tripinfo_southEast.7 ssm_southEast.7" vType="carCustom" speedFactor="0.93" vaporized=""/>
    <tripinfo id="westEastTop.9" depart="32.00" departLane="westJunction_1" departPos="5.10" departSpeed="12.34" departDelay="4.55" arrival="194.00" arrivalLane="junctionEast_1" arrivalPos="492.80" arrivalSpeed="27.52" duration="162.00" routeLength="994.90" waitingTime="0.00" waitingCount="0" stopTime="0.00" timeLoss="125.99" rerouteNo="0" devices="tripinfo_westEastTop.9 ssm_westEastTop.9" vType="carCustom" speedFactor="1.24" vaporized=""/>
    <tripinfo id="westEastBottom0.5" depart="103.00" departLane="westJunction_0" departPos="5.10" departSpeed="11.13" departDelay="0.54" arrival="194.00" arrivalLane="junctionEast_0" arrivalPos="492.80" arrivalSpeed="27.26" duration="91.00" routeLength="994.90" waitingTime="0.00" waitingCount="0" stopTime="0.00" timeLoss="54.22" rerouteNo="0" devices="tripinfo_westEastBottom0.5 ssm_westEastBottom0.5" vType="carCustom" speedFactor="0.84" vaporized=""/>
    <tripinfo id="southNorth.2" depart="38.00" departLane="southJunction_1" departPos="5.10" departSpeed="6.35" departDelay="0.93" arrival="198.00" arrivalLane="junctionNorth_0" arrivalPos="492.80" arrivalSpeed="27.60" duration="160.00" routeLength="995.01" waitingTime="21.00" waitingCount="2" stopTime="0.00" timeLoss="124.10" rerouteNo="0" devices="tripinfo_southNorth.2 ssm_southNorth.2" vType="carCustom" speedFactor="1.10" vaporized=""/>
    <tripinfo id="westEastTop.10" depart="34.00" departLane="westJunction_1" departPos="5.10" departSpeed="11.06" departDelay="2.59" arrival="204.00" arrivalLane="junctionEast_1" arrivalPos="492.80" arrivalSpeed="27.57" duration="170.00" routeLength="994.90" waitingTime="0.00" waitingCount="0" stopTime="0.00" timeLoss="133.31" rerouteNo="0" devices="tripinfo_westEastTop.10 ssm_westEastTop.10" vType="carCustom" speedFactor="1.04" vaporized=""/>
    <tripinfo id="southEast.8" depart="81.00" departLane="southJunction_0" departPos="5.10" departSpeed="7.11" departDelay="0.37" arrival="207.00" arrivalLane="junctionEast_1" arrivalPos="492.80" arrivalSpeed="21.21" duration="126.00" routeLength="989.53" waitingTime="5.00" waitingCount="1" stopTime="0.00" timeLoss="88.61" rerouteNo="0" devices="tripinfo_southEast.8 ssm_southEast.8" vType="carCustom" speedFactor="0.84" vaporized=""/>
    <tripinfo id="southNorth.3" depart="49.00" departLane="southJunction_1" departPos="5.10" departSpeed="2.02" departDelay="0.44" arrival="212.00" arrivalLane="junctionNorth_0" arrivalPos="492.80" arrivalSpeed="27.69" duration="163.00" routeLength="995.01" waitingTime="13.00" waitingCount="2" stopTime="0.00" timeLoss="126.87" rerouteNo="0" devices="tripinfo_southNorth.3 ssm_southNorth.3" vType="carCustom" speedFactor="1.05" vaporized=""/>
    <tripinfo id="southEast.9" depart="95.00" departLane="southJunction_0" departPos="5.10" departSpeed="8.40" departDelay="0.67" arrival="214.00" arrivalLane="junctionEast_1" arrivalPos="492.80" arrivalSpeed="27.01" duration="119.00" routeLength="989.53" waitingTime="0.00" waitingCount="0" stopTime="0.00" timeLoss="81.55" rerouteNo="0" devices="tripinfo_southEast.9 ssm_southEast.9" vType="carCustom" speedFactor="1.02" vaporized=""/>
    <tripinfo id="westEastTop.11" depart="36.00" departLane="westJunction_1" departPos="5.10" departSpeed="9.78" departDelay="1.47" arrival="222.00" arrivalLane="junctionEast_1" arrivalPos="492.80" arrivalSpeed="24.98" duration="186.00" routeLength="994.90" waitingTime="0.00" waitingCount="0" stopTime="0.00" timeLoss="149.47" rerouteNo="0" devices="tripinfo_westEastTop.11 ssm_westEastTop.11" vType="carCustom" speedFactor="0.96" vaporized=""/>
    <tripinfo id="southNorth.4" depart="64.00" departLane="southJunction_1" departPos="5.10" departSpeed="3.04" departDelay="0.67" arrival="225.00" arrivalLane="junctionNorth_0" arrivalPos="492.80" arrivalSpeed="27.35" duration="161.00" routeLength="995.01" waitingTime="8.00" waitingCount="2" stopTime="0.00" timeLoss="125.04" rerouteNo="0" devices="tripinfo_southNorth.4 ssm_southNorth.4" vType="carCustom" speedFactor="1.03" vaporized=""/>
    <tripinfo id="southEast.10" depart="98.00" departLane="southJunction_0" departPos="5.10" departSpeed="8.35" departDelay="0.92" arrival="225.00" arrivalLane="junctionEast_1" arrivalPos="492.80" arrivalSpeed="22.09" duration="127.00" routeLength="989.53" waitingTime="0.00" waitingCount="0" stopTime="0.00" timeLoss="89.70" rerouteNo="0" devices="tripinfo_southEast.10 ssm_southEast.10" vType="carCustom" speedFactor="0.93" vaporized=""/>
    <tripinfo id="westEastTop.12" depart="38.00" departLane="westJunction_1" departPos="5.10" departSpeed="8.50" departDelay="2.05" arrival="231.00" arrivalLane="junctionEast_1" arrivalPos="492.80" arrivalSpeed="27.09" duration="193.00" routeLength="994.90" waitingTime="0.00" waitingCount="0" stopTime="0.00" timeLoss="156.83" rerouteNo="0" devices="tripinfo_westEastTop.12 ssm_westEastTop.12" vType="carCustom" speedFactor="1.09" vaporized=""/>
    <tripinfo id="southNorth.5" depart="70.00" departLane="southJunction_1" departPos="5.10" departSpeed="4.28" departDelay="0.27" arrival="238.00" arrivalLane="junctionNorth_0" arrivalPos="492.80" arrivalSpeed="26.95" duration="168.00" routeLength="995.01" waitingTime="0.00" waitingCount="0" stopTime="0.00" timeLoss="131.23" rerouteNo="0" devices="tripinfo_southNorth.5 ssm_southNorth.5" vType="carCustom" speedFactor="0.92" vaporized=""/>
    <tripinfo id="westEastTop.13" depart="42.00" departLane="westJunction_1" departPos="5.10" departSpeed="5.94" departDelay="0.97" arrival="239.00" arrivalLane="junctionEast_1" arrivalPos="492.80" arrivalSpeed="26.08" duration="197.00" routeLength="994.90" waitingTime="0.00" waitingCount="0" stopTime="0.00" timeLoss="160.97" rerouteNo="0" devices="tripinfo_westEastTop.13 ssm_westEastTop.13" vType="carCustom" speedFactor="0.93" vaporized=""/>
    <tripinfo id="westEastBottom0.7" depart="121.00" departLane="westJunction_0" departPos="5.10" departSpeed="6.88" departDelay="0.39" arrival="240.00" arrivalLane="junctionEast_0" arrivalPos="492.80" arrivalSpeed="26.11" duration="119.00" routeLength="994.90" waitingTime="0.00" waitingCount="0" stopTime="0.00" timeLoss="82.33" rerouteNo="0" devices="tripinfo_westEastBottom0.7 ssm_westEastBottom0.7" vType="carCustom" speedFactor="1.10" vaporized=""/>
    <tripinfo id="westEastBottom0.11" depart="134.00" departLane="westJunction_0" departPos="5.10" departSpeed="3.34" departDelay="4.18" arrival="240.00" arrivalLane="junctionEast_0" arrivalPos="492.80" arrivalSpeed="3.85" duration="106.00" routeLength="994.90" waitingTime="0.00" waitingCount="0" stopTime="0.00" timeLoss="87.81" rerouteNo="0" devices="tripinfo_westEastBottom0.11 ssm_westEastBottom0.11" vType="carCustom" speedFactor="0.95" vaporized="teleport"/>
    <tripinfo id="westEastTop.14" depart="45.00" departLane="westJunction_1" departPos="5.10" departSpeed="4.08" departDelay="2.42" arrival="249.00" arrivalLane="junctionEast_1" arrivalPos="492.80" arrivalSpeed="27.49" duration="204.00" routeLength="994.90" waitingTime="0.00" waitingCount="0" stopTime="0.00" timeLoss="167.65" rerouteNo="0" devices="tripinfo_westEastTop.14 ssm_westEastTop.14" vType="carCustom" speedFactor="0.93" vaporized=""/>
    <tripinfo id="southNorth.6" depart="76.00" departLane="southJunction_1" departPos="5.10" departSpeed="3.27" departDelay="0.86" arrival="250.00" arrivalLane="junctionNorth_0" arrivalPos="492.80" arrivalSpeed="27.41" duration="174.00" routeLength="995.01" waitingTime="6.00" waitingCount="1" stopTime="0.00" timeLoss="137.53" rerouteNo="0" devices="tripinfo_southNorth.6 ssm_southNorth.6" vType="carCustom" speedFactor="0.89" vaporized=""/>
    <tripinfo id="westEastBottom0.8" depart="126.00" departLane="westJunction_0" departPos="5.10" departSpeed="8.46" departDelay="0.95" arrival="252.00" arrivalLane="junctionEast_1" arrivalPos="492.80" arrivalSpeed="23.68" duration="126.00" routeLength="994.90" waitingTime="0.00" waitingCount="0" stopTime="0.00" timeLoss="89.61" rerouteNo="0" devices="tripinfo_westEastBottom0.8 ssm_westEastBottom0.8" vType="carCustom" speedFactor="1.06" vaporized=""/>
    <tripinfo id="southEast.11" depart="152.00" departLane="southJunction_0" departPos="5.10" departSpeed="6.41" departDelay="0.55" arrival="259.00" arrivalLane="junctionEast_0" arrivalPos="492.80" arrivalSpeed="27.72" duration="107.00" routeLength="989.53" waitingTime="0.00" waitingCount="0" stopTime="0.00" timeLoss="69.40" rerouteNo="0" devices="tripinfo_southEast.11 ssm_southEast.11" vType="carCustom" speedFactor="1.04" vaporized=""/>
    <tripinfo id="westEastTop.15" depart="49.00" departLane="westJunction_1" departPos="5.10" departSpeed="1.92" departDelay="2.36" arrival="261.00" arrivalLane="junctionEast_1" arrivalPos="492.80" arrivalSpeed="27.05" duration="212.00" routeLength="994.90" waitingTime="0.00" waitingCount="0" stopTime="0.00" timeLoss="175.99" rerouteNo="0" devices="tripinfo_westEastTop.15 ssm_westEastTop.15" vType="carCustom" speedFactor="1.02" vaporized=""/>
    <tripinfo id="southNorth.7" depart="80.00" departLane="southJunction_1" departPos="5.10" departSpeed="2.53" departDelay="0.90" arrival="262.00" arrivalLane="junctionNorth_0" arrivalPos="492.80" arrivalSpeed="27.58" duration="182.00" routeLength="995.01" waitingTime="4.00" waitingCount="2" stopTime="0.00" timeLoss="145.27" rerouteNo="0" devices="tripinfo_southNorth.7 ssm_southNorth.7" vType="carCustom" speedFactor="0.97" vaporized=""/>
    <tripinfo id="westEastBottom0.9" depart="128.00" departLane="westJunction_0" departPos="5.10" departSpeed="7.18" departDelay="2.04" arrival="270.00" arrivalLane="junctionEast_0" arrivalPos="492.80" arrivalSpeed="27.16" duration="142.00" routeLength="994.90" waitingTime="4.00" waitingCount="1" stopTime="0.00" timeLoss="105.27" rerouteNo="0" devices="tripinfo_westEastBottom0.9 ssm_westEastBottom0.9" vType="carCustom" speedFactor="0.96" vaporized=""/>
    <tripinfo id="westEastTop.16" depart="56.00" departLane="westJunction_1" departPos="5.10" departSpeed="1.31" departDelay="2.61" arrival="271.00" arrivalLane="junctionEast_1" arrivalPos="492.80" arrivalSpeed="26.71" duration="215.00" routeLength="994.90" waitingTime="0.00" waitingCount="0" stopTime="0.00" timeLoss="178.50" rerouteNo="0" devices="tripinfo_westEastTop.16 ssm_westEastTop.16" vType="carCustom" speedFactor="1.17" vaporized=""/>
    <tripinfo id="southNorth.8" depart="87.00" departLane="southJunction_1" departPos="5.10" departSpeed="1.84" departDelay="4.87" arrival="275.00" arrivalLane="junctionNorth_0" arrivalPos="492.80" arrivalSpeed="27.33" duration="188.00" routeLength="995.01" waitingTime="14.00" waitingCount="1" stopTime="0.00" timeLoss="151.74" rerouteNo="0" devices="tripinfo_southNorth.8 ssm_southNorth.8" vType="carCustom" speedFactor="0.96" vaporized=""/>
    <tripinfo id="westEastBottom0.14" depart="175.00" departLane="westJunction_0" departPos="5.10" departSpeed="4.97" departDelay="1.09" arrival="280.00" arrivalLane="junctionEast_0" arrivalPos="492.80" arrivalSpeed="4.10" duration="105.00" routeLength="994.90" waitingTime="0.00" waitingCount="0" stopTime="0.00" timeLoss="86.79" rerouteNo="0" devices="tripinfo_westEastBottom0.14 ssm_westEastBottom0.14" vType="carCustom" speedFactor="1.12" vaporized="teleport"/>
    <tripinfo id="westEastTop.17" depart="65.00" departLane="westJunction_1" departPos="5.10" departSpeed="1.28" departDelay="7.75" arrival="281.00" arrivalLane="junctionEast_1" arrivalPos="492.80" arrivalSpeed="27.63" duration="216.00" routeLength="994.90" waitingTime="0.00" waitingCount="0" stopTime="0.00" timeLoss="179.22" rerouteNo="0" devices="tripinfo_westEastTop.17 ssm_westEastTop.17" vType="carCustom" speedFactor="0.91" vaporized=""/>
    <tripinfo id="southEast.12" depart="158.00" departLane="southJunction_0" departPos="5.10" departSpeed="13.57" departDelay="0.59" arrival="281.00" arrivalLane="junctionEast_0" arrivalPos="492.80" arrivalSpeed="27.08" duration="123.00" routeLength="989.53" waitingTime="3.00" waitingCount="1" stopTime="0.00" timeLoss="85.57" rerouteNo="0" devices="tripinfo_southEast.12 ssm_southEast.12" vType="carCustom" speedFactor="1.05" vaporized=""/>
    <tripinfo id="westEastBottom0.10" depart="131.00" departLane="westJunction_0" departPos="5.10" departSpeed="5.26" departDelay="1.22" arrival="291.00" arrivalLane="junctionEast_1" arrivalPos="492.80" arrivalSpeed="27.13" duration="160.00" routeLength="994.90" waitingTime="0.00" waitingCount="0" stopTime="0.00" timeLoss="123.30" rerouteNo="0" devices="tripinfo_westEastBottom0.10 ssm_westEastBottom0.10" vType="carCustom" speedFactor="0.93" vaporized=""/>
    <tripinfo id="southNorth.9" depart="98.00" departLane="southJunction_1" departPos="5.10" departSpeed="2.30" departDelay="0.21" arrival="293.00" arrivalLane="junctionNorth_0" arrivalPos="492.80" arrivalSpeed="27.37" duration="195.00" routeLength="995.01" waitingTime="24.00" waitingCount="2" stopTime="0.00" timeLoss="159.07" rerouteNo="0" devices="tripinfo_southNorth.9 ssm_southNorth.9" vType="carCustom" speedFactor="1.00" vaporized=""/>
    <tripinfo id="southEast.13" depart="160.00" departLane="southJunction_0" departPos="5.10" departSpeed="12.29" departDelay="1.51" arrival="293.00" arrivalLane="junctionEast_1" arrivalPos="492.80" arrivalSpeed="21.69" duration="133.00" routeLength="989.53" waitingTime="0.00" waitingCount="0" stopTime="0.00" timeLoss="95.95" rerouteNo="0" devices="tripinfo_southEast.13 ssm_southEast.13" vType="carCustom" speedFactor="0.96" vaporized=""/>
    <tripinfo id="southEast.14" depart="162.00" departLane="southJunction_0" departPos="5.10" departSpeed="11.01" departDelay="2.26" arrival="300.00" arrivalLane="junctionEast_0" arrivalPos="492.80" arrivalSpeed="27.68" duration="138.00" routeLength="989.53" waitingTime="0.00" waitingCount="0" stopTime="0.00" timeLoss="101.61" rerouteNo="0" devices="tripinfo_southEast.14 ssm_southEast.14" vType="carCustom" speedFactor="0.92" vaporized=""/>
    <tripinfo id="westEastTop.18" depart="74.00" departLane="westJunction_1" departPos="5.10" departSpeed="1.16" departDelay="15.55" arrival="303.00" arrivalLane="junctionEast_1" arrivalPos="492.80" arrivalSpeed="26.96" duration="229.00" routeLength="994.90" waitingTime="0.00" waitingCount="0" stopTime="0.00" timeLoss="192.45" rerouteNo="0" devices="tripinfo_westEastTop.18 ssm_westEastTop.18" vType="carCustom" speedFactor="1.00" vaporized=""/>
    <tripinfo id="southNorth.10" depart="103.00" departLane="southJunction_1" departPos="5.10" departSpeed="2.54" departDelay="3.99" arrival="309.00" arrivalLane="junctionNorth_0" arrivalPos="492.80" arrivalSpeed="26.72" duration="206.00" routeLength="995.01" waitingTime="22.00" waitingCount="3" stopTime="0.00" timeLoss="170.10" rerouteNo="0" devices="tripinfo_southNorth.10 ssm_southNorth.10" vType="carCustom" speedFactor="0.97" vaporized=""/>
    <tripinfo id="westEastBottom0.12" depart="149.00" departLane="westJunction_0" departPos="5.10" departSpeed="2.13" departDelay="0.57" arrival="311.00" arrivalLane="junctionEast_0" arrivalPos="492.80" arrivalSpeed="27.18" duration="162.00" routeLength="994.90" waitingTime="0.00" waitingCount="0" stopTime="0.00" timeLoss="125.41" rerouteNo="0" devices="tripinfo_westEastBottom0.12 ssm_westEastBottom0.12" vType="carCustom" speedFactor="1.09" vaporized=""/>
    <tripinfo id="westEastTop.19" depart="83.00" departLane="westJunction_1" departPos="5.10" departSpeed="1.73" departDelay="22.86" arrival="312.00" arrivalLane="junctionEast_1" arrivalPos="492.80" arrivalSpeed="27.43" duration="229.00" routeLength="994.90" waitingTime="0.00" waitingCount="0" stopTime="0.00" timeLoss="193.01" rerouteNo="0" devices="tripinfo_westEastTop.19 ssm_westEastTop.19" vType="carCustom" speedFactor="1.01" vaporized=""/>
    <tripinfo id="southEast.15" depart="164.00" departLane="southJunction_0" departPos="5.10" departSpeed="9.73" departDelay="4.24" arrival="321.00" arrivalLane="junctionEast_0" arrivalPos="492.80" arrivalSpeed="26.79" duration="157.00" routeLength="989.53" waitingTime="0.00" waitingCount="0" stopTime="0.00" timeLoss="120.19" rerouteNo="0" devices="tripinfo_southEast.15 ssm_southEast.15" vType="carCustom" speedFactor="1.10" vaporized=""/>
    <tripinfo id="westEastTop.20" depart="92.00" departLane="westJunction_1" departPos="5.10" departSpeed="1.70" departDelay="25.84" arrival="322.00" arrivalLane="junctionEast_1" arrivalPos="492.80" arrivalSpeed="27.13" duration="230.00" routeLength="994.90" waitingTime="0.00" waitingCount="0" stopTime="0.00" timeLoss="193.89" rerouteNo="0" devices="tripinfo_westEastTop.20 ssm_westEastTop.20" vType="carCustom" speedFactor="1.00" vaporized=""/>
    <tripinfo id="southNorth.11" depart="109.00" departLane="southJunction_1" departPos="5.10" departSpeed="1.86" departDelay="6.94" arrival="323.00" arrivalLane="junctionNorth_0" arrivalPos="492.80" arrivalSpeed="27.16" duration="214.00" routeLength="995.01" waitingTime="17.00" waitingCount="3" stopTime="0.00" timeLoss="177.43" rerouteNo="0" devices="tripinfo_southNorth.11 ssm_southNorth.11" vType="carCustom" speedFactor="1.16" vaporized=""/>