<?xml version="1.0" encoding="UTF-8"?>

<!-- generated on 2025-04-29 08:21:47 by Eclipse SUMO sumo Version 1.20.0
<configuration xmlns:xsi="http://www.w3.org/2001/XMLSchema-instance" xsi:noNamespaceSchemaLocation="http://sumo.dlr.de/xsd/sumoConfiguration.xsd">

    <input>
        <net-file value="nets/2lane_unprotected_right/2lane_unprotected_right.net.xml"/>
        <route-files value="nets/2lane_unprotected_right/2lane_unprotected_right.rou.xml"/>
    </input>

    <output>
        <tripinfo-output value="traces/transs50f1_s50_f0.5_random/0154_tripinfo.xml"/>
        <collision-output value="traces/transs50f1_s50_f0.5_random/0154_collisions.xml"/>
        <statistic-output value="traces/transs50f1_s50_f0.5_random/0154_statistics.xml"/>
    </output>

    <processing>
        <collision.action value="teleport"/>
        <collision.check-junctions value="true"/>
        <time-to-teleport value="-1"/>
        <waiting-time-memory value="1000"/>
        <max-depart-delay value="-1"/>
        <default.speeddev value="0.1"/>
    </processing>

    <report>
        <no-warnings value="true"/>
    </report>

    <ssm_device>
        <device.ssm.probability value="1.0"/>
        <device.ssm.measures value="BR"/>
        <device.ssm.file value="/Users/finn/Code/CausalKnowledgeTransfer-4-SafeRL/traces/transs50f1_s50_f0.5_random/0154_ssm.xml"/>
    </ssm_device>

    <traci_server>
        <remote-port value="64313"/>
    </traci_server>

    <random_number>
        <random value="true"/>
    </random_number>

</configuration>
-->

<tripinfos xmlns:xsi="http://www.w3.org/2001/XMLSchema-instance" xsi:noNamespaceSchemaLocation="http://sumo.dlr.de/xsd/tripinfo_file.xsd">
    <tripinfo id="southNorth.0" depart="2.00" departLane="southJunction_1" departPos="5.10" departSpeed="22.22" departDelay="0.81" arrival="52.00" arrivalLane="junctionNorth_0" arrivalPos="492.80" arrivalSpeed="21.93" duration="50.00" routeLength="995.01" waitingTime="0.00" waitingCount="0" stopTime="0.00" timeLoss="4.91" rerouteNo="0" devices="tripinfo_southNorth.0 ssm_southNorth.0" vType="carCustom" speedFactor="1.02" vaporized=""/>
    <tripinfo id="southEast.0" depart="6.00" departLane="southJunction_0" departPos="5.10" departSpeed="22.22" departDelay="0.74" arrival="57.00" arrivalLane="junctionEast_0" arrivalPos="492.80" arrivalSpeed="21.07" duration="51.00" routeLength="989.53" waitingTime="0.00" waitingCount="0" stopTime="0.00" timeLoss="4.14" rerouteNo="0" devices="tripinfo_southEast.0 ssm_southEast.0" vType="carCustom" speedFactor="0.88" vaporized=""/>
    <tripinfo id="westEastTop.0" depart="10.00" departLane="westJunction_1" departPos="5.10" departSpeed="22.22" departDelay="0.94" arrival="57.00" arrivalLane="junctionEast_1" arrivalPos="492.80" arrivalSpeed="21.88" duration="47.00" routeLength="994.90" waitingTime="0.00" waitingCount="0" stopTime="0.00" timeLoss="2.05" rerouteNo="0" devices="tripinfo_westEastTop.0 ssm_westEastTop.0" vType="carCustom" speedFactor="0.87" vaporized=""/>
    <tripinfo id="southNorth.1" depart="8.00" departLane="southJunction_1" departPos="5.10" departSpeed="21.52" departDelay="0.69" arrival="63.00" arrivalLane="junctionNorth_0" arrivalPos="492.80" arrivalSpeed="21.41" duration="55.00" routeLength="995.01" waitingTime="0.00" waitingCount="0" stopTime="0.00" timeLoss="9.96" rerouteNo="0" devices="tripinfo_southNorth.1 ssm_southNorth.1" vType="carCustom" speedFactor="1.21" vaporized=""/>
    <tripinfo id="westEastBottom0.0" depart="8.00" departLane="westJunction_0" departPos="5.10" departSpeed="22.22" departDelay="0.53" arrival="63.00" arrivalLane="junctionEast_0" arrivalPos="492.80" arrivalSpeed="21.33" duration="55.00" routeLength="994.90" waitingTime="0.00" waitingCount="0" stopTime="0.00" timeLoss="9.90" rerouteNo="0" devices="tripinfo_westEastBottom0.0 ssm_westEastBottom0.0" vType="carCustom" speedFactor="1.07" vaporized=""/>
    <tripinfo id="westEastTop.1" depart="12.00" departLane="westJunction_1" departPos="5.10" departSpeed="21.07" departDelay="2.31" arrival="67.00" arrivalLane="junctionEast_1" arrivalPos="492.80" arrivalSpeed="21.13" duration="55.00" routeLength="994.90" waitingTime="0.00" waitingCount="0" stopTime="0.00" timeLoss="10.22" rerouteNo="0" devices="tripinfo_westEastTop.1 ssm_westEastTop.1" vType="carCustom" speedFactor="0.88" vaporized=""/>
    <tripinfo id="southEast.1" depart="9.00" departLane="southJunction_0" departPos="5.10" departSpeed="22.01" departDelay="0.06" arrival="70.00" arrivalLane="junctionEast_0" arrivalPos="492.80" arrivalSpeed="20.95" duration="61.00" routeLength="989.53" waitingTime="0.00" waitingCount="0" stopTime="0.00" timeLoss="14.83" rerouteNo="0" devices="tripinfo_southEast.1 ssm_southEast.1" vType="carCustom" speedFactor="0.99" vaporized=""/>
    <tripinfo id="southNorth.2" depart="10.00" departLane="southJunction_1" departPos="5.10" departSpeed="18.69" departDelay="2.60" arrival="76.00" arrivalLane="junctionNorth_0" arrivalPos="492.80" arrivalSpeed="22.10" duration="66.00" routeLength="995.01" waitingTime="1.00" waitingCount="1" stopTime="0.00" timeLoss="20.95" rerouteNo="0" devices="tripinfo_southNorth.2 ssm_southNorth.2" vType="carCustom" speedFactor="1.09" vaporized=""/>
    <tripinfo id="southEast.2" depart="11.00" departLane="southJunction_0" departPos="5.10" departSpeed="17.47" departDelay="1.36" arrival="76.00" arrivalLane="junctionEast_1" arrivalPos="492.80" arrivalSpeed="22.00" duration="65.00" routeLength="989.53" waitingTime="0.00" waitingCount="0" stopTime="0.00" timeLoss="18.87" rerouteNo="0" devices="tripinfo_southEast.2 ssm_southEast.2" vType="carCustom" speedFactor="1.06" vaporized=""/>
    <tripinfo id="westEastBottom0.1" depart="13.00" departLane="westJunction_0" departPos="5.10" departSpeed="21.51" departDelay="0.93" arrival="76.00" arrivalLane="junctionEast_0" arrivalPos="492.80" arrivalSpeed="21.95" duration="63.00" routeLength="994.90" waitingTime="0.00" waitingCount="0" stopTime="0.00" timeLoss="18.03" rerouteNo="0" devices="tripinfo_westEastBottom0.1 ssm_westEastBottom0.1" vType="carCustom" speedFactor="1.09" vaporized=""/>
    <tripinfo id="westEastTop.2" depart="28.00" departLane="westJunction_1" departPos="5.10" departSpeed="18.69" departDelay="0.75" arrival="83.00" arrivalLane="junctionEast_1" arrivalPos="492.80" arrivalSpeed="21.13" duration="55.00" routeLength="994.90" waitingTime="0.00" waitingCount="0" stopTime="0.00" timeLoss="9.56" rerouteNo="0" devices="tripinfo_westEastTop.2 ssm_westEastTop.2" vType="carCustom" speedFactor="0.92" vaporized=""/>
    <tripinfo id="westEastBottom0.2" depart="17.00" departLane="westJunction_0" departPos="5.10" departSpeed="15.74" departDelay="0.16" arrival="84.00" arrivalLane="junctionEast_0" arrivalPos="492.80" arrivalSpeed="22.04" duration="67.00" routeLength="994.90" waitingTime="0.00" waitingCount="0" stopTime="0.00" timeLoss="21.36" rerouteNo="0" devices="tripinfo_westEastBottom0.2 ssm_westEastBottom0.2" vType="carCustom" speedFactor="0.90" vaporized=""/>
    <tripinfo id="southNorth.3" depart="12.00" departLane="southJunction_1" departPos="5.10" departSpeed="14.09" departDelay="3.38" arrival="87.00" arrivalLane="junctionNorth_0" arrivalPos="492.80" arrivalSpeed="22.12" duration="75.00" routeLength="995.01" waitingTime="2.00" waitingCount="1" stopTime="0.00" timeLoss="29.24" rerouteNo="0" devices="tripinfo_southNorth.3 ssm_southNorth.3" vType="carCustom" speedFactor="0.97" vaporized=""/>
    <tripinfo id="southEast.3" depart="18.00" departLane="southJunction_0" departPos="5.10" departSpeed="12.25" departDelay="0.78" arrival="90.00" arrivalLane="junctionEast_0" arrivalPos="492.80" arrivalSpeed="21.14" duration="72.00" routeLength="989.53" waitingTime="1.00" waitingCount="1" stopTime="0.00" timeLoss="26.44" rerouteNo="0" devices="tripinfo_southEast.3 ssm_southEast.3" vType="carCustom" speedFactor="1.06" vaporized=""/>
    <tripinfo id="westEastTop.3" depart="31.00" departLane="westJunction_1" departPos="5.10" departSpeed="21.13" departDelay="0.73" arrival="90.00" arrivalLane="junctionEast_1" arrivalPos="492.80" arrivalSpeed="21.08" duration="59.00" routeLength="994.90" waitingTime="0.00" waitingCount="0" stopTime="0.00" timeLoss="14.16" rerouteNo="0" devices="tripinfo_westEastTop.3 ssm_westEastTop.3" vType="carCustom" speedFactor="1.03" vaporized=""/>
    <tripinfo id="southNorth.4" depart="18.00" departLane="southJunction_1" departPos="5.10" departSpeed="10.75" departDelay="0.51" arrival="96.00" arrivalLane="junctionNorth_0" arrivalPos="492.80" arrivalSpeed="21.22" duration="78.00" routeLength="995.01" waitingTime="4.00" waitingCount="1" stopTime="0.00" timeLoss="33.10" rerouteNo="0" devices="tripinfo_southNorth.4 ssm_southNorth.4" vType="carCustom" speedFactor="0.90" vaporized=""/>
    <tripinfo id="southEast.4" depart="21.00" departLane="southJunction_0" departPos="5.10" departSpeed="13.83" departDelay="0.70" arrival="96.00" arrivalLane="junctionEast_0" arrivalPos="492.80" arrivalSpeed="21.42" duration="75.00" routeLength="989.53" waitingTime="0.00" waitingCount="0" stopTime="0.00" timeLoss="28.89" rerouteNo="0" devices="tripinfo_southEast.4 ssm_southEast.4" vType="carCustom" speedFactor="0.91" vaporized=""/>
    <tripinfo id="southEast.9" depart="66.00" departLane="southJunction_0" departPos="5.10" departSpeed="14.54" departDelay="0.31" arrival="98.00" arrivalLane="junctionEast_0" arrivalPos="492.80" arrivalSpeed="5.86" duration="32.00" routeLength="989.53" waitingTime="0.00" waitingCount="0" stopTime="0.00" timeLoss="8.92" rerouteNo="0" devices="tripinfo_southEast.9 ssm_southEast.9" vType="carCustom" speedFactor="1.05" vaporized="teleport"/>
    <tripinfo id="westEastTop.4" depart="33.00" departLane="westJunction_1" departPos="5.10" departSpeed="16.72" departDelay="2.29" arrival="101.00" arrivalLane="junctionEast_1" arrivalPos="492.80" arrivalSpeed="21.93" duration="68.00" routeLength="994.90" waitingTime="1.00" waitingCount="1" stopTime="0.00" timeLoss="22.79" rerouteNo="0" devices="tripinfo_westEastTop.4 ssm_westEastTop.4" vType="carCustom" speedFactor="0.94" vaporized=""/>
    <tripinfo id="southEast.5" depart="24.00" departLane="southJunction_0" departPos="5.10" departSpeed="10.40" departDelay="0.81" arrival="102.00" arrivalLane="junctionEast_0" arrivalPos="492.80" arrivalSpeed="21.05" duration="78.00" routeLength="989.53" waitingTime="0.00" waitingCount="0" stopTime="0.00" timeLoss="32.03" rerouteNo="0" devices="tripinfo_southEast.5 ssm_southEast.5" vType="carCustom" speedFactor="0.86" vaporized=""/>
    <tripinfo id="westEastBottom0.5" depart="73.00" departLane="westJunction_0" departPos="5.10" departSpeed="16.00" departDelay="0.44" arrival="107.00" arrivalLane="junctionEast_0" arrivalPos="492.80" arrivalSpeed="6.57" duration="34.00" routeLength="994.90" waitingTime="0.00" waitingCount="0" stopTime="0.00" timeLoss="11.20" rerouteNo="0" devices="tripinfo_westEastBottom0.5 ssm_westEastBottom0.5" vType="carCustom" speedFactor="1.04" vaporized="teleport"/>
    <tripinfo id="southNorth.5" depart="23.00" departLane="southJunction_1" departPos="5.10" departSpeed="11.40" departDelay="0.45" arrival="108.00" arrivalLane="junctionNorth_0" arrivalPos="492.80" arrivalSpeed="21.68" duration="85.00" routeLength="995.01" waitingTime="5.00" waitingCount="1" stopTime="0.00" timeLoss="39.86" rerouteNo="0" devices="tripinfo_southNorth.5 ssm_southNorth.5" vType="carCustom" speedFactor="0.87" vaporized=""/>
    <tripinfo id="southEast.6" depart="28.00" departLane="southJunction_0" departPos="5.10" departSpeed="9.03" departDelay="0.49" arrival="108.00" arrivalLane="junctionEast_0" arrivalPos="492.80" arrivalSpeed="21.58" duration="80.00" routeLength="989.53" waitingTime="0.00" waitingCount="0" stopTime="0.00" timeLoss="34.01" rerouteNo="0" devices="tripinfo_southEast.6 ssm_southEast.6" vType="carCustom" speedFactor="0.93" vaporized=""/>
    <tripinfo id="westEastTop.5" depart="35.00" departLane="westJunction_1" departPos="5.10" departSpeed="12.03" departDelay="0.62" arrival="108.00" arrivalLane="junctionEast_1" arrivalPos="492.80" arrivalSpeed="20.98" duration="73.00" routeLength="994.90" waitingTime="0.00" waitingCount="0" stopTime="0.00" timeLoss="27.32" rerouteNo="0" devices="tripinfo_westEastTop.5 ssm_westEastTop.5" vType="carCustom" speedFactor="1.06" vaporized=""/>
    <tripinfo id="southEast.7" depart="35.00" departLane="southJunction_0" departPos="5.10" departSpeed="9.47" departDelay="0.16" arrival="114.00" arrivalLane="junctionEast_0" arrivalPos="492.80" arrivalSpeed="21.88" duration="79.00" routeLength="989.53" waitingTime="0.00" waitingCount="0" stopTime="0.00" timeLoss="33.09" rerouteNo="0" devices="tripinfo_southEast.7 ssm_southEast.7" vType="carCustom" speedFactor="1.09" vaporized=""/>
    <tripinfo id="westEastTop.6" depart="37.00" departLane="westJunction_1" departPos="5.10" departSpeed="7.84" departDelay="1.13" arrival="114.00" arrivalLane="junctionEast_1" arrivalPos="492.80" arrivalSpeed="20.95" duration="77.00" routeLength="994.90" waitingTime="0.00" waitingCount="0" stopTime="0.00" timeLoss="31.96" rerouteNo="0" devices="tripinfo_westEastTop.6 ssm_westEastTop.6" vType="carCustom" speedFactor="1.04" vaporized=""/>
    <tripinfo id="southNorth.6" depart="35.00" departLane="southJunction_1" departPos="5.10" departSpeed="12.80" departDelay="0.59" arrival="118.00" arrivalLane="junctionNorth_0" arrivalPos="492.80" arrivalSpeed="21.64" duration="83.00" routeLength="995.01" waitingTime="7.00" waitingCount="2" stopTime="0.00" timeLoss="38.03" rerouteNo="0" devices="tripinfo_southNorth.6 ssm_southNorth.6" vType="carCustom" speedFactor="0.95" vaporized=""/>
    <tripinfo id="westEastBottom0.3" depart="51.00" departLane="westJunction_0" departPos="5.10" departSpeed="2.59" departDelay="0.20" arrival="120.00" arrivalLane="junctionEast_0" arrivalPos="492.80" arrivalSpeed="22.03" duration="69.00" routeLength="994.90" waitingTime="0.00" waitingCount="0" stopTime="0.00" timeLoss="23.77" rerouteNo="0" devices="tripinfo_westEastBottom0.3 ssm_westEastBottom0.3" vType="carCustom" speedFactor="0.95" vaporized=""/>
    <tripinfo id="southEast.8" depart="51.00" departLane="southJunction_0" departPos="5.10" departSpeed="11.96" departDelay="0.46" arrival="121.00" arrivalLane="junctionEast_1" arrivalPos="492.80" arrivalSpeed="22.07" duration="70.00" routeLength="989.53" waitingTime="1.00" waitingCount="1" stopTime="0.00" timeLoss="24.13" rerouteNo="0" devices="tripinfo_southEast.8 ssm_southEast.8" vType="carCustom" speedFactor="1.14" vaporized=""/>
    <tripinfo id="westEastBottom0.4" depart="56.00" departLane="westJunction_0" departPos="5.10" departSpeed="12.91" departDelay="0.14" arrival="126.00" arrivalLane="junctionEast_0" arrivalPos="492.80" arrivalSpeed="22.10" duration="70.00" routeLength="994.90" waitingTime="0.00" waitingCount="0" stopTime="0.00" timeLoss="25.21" rerouteNo="0" devices="tripinfo_westEastBottom0.4 ssm_westEastBottom0.4" vType="carCustom" speedFactor="0.79" vaporized=""/>
    <tripinfo id="westEastTop.7" depart="40.00" departLane="westJunction_1" departPos="5.10" departSpeed="5.28" departDelay="3.09" arrival="127.00" arrivalLane="junctionEast_1" arrivalPos="492.80" arrivalSpeed="21.66" duration="87.00" routeLength="994.90" waitingTime="3.00" waitingCount="1" stopTime="0.00" timeLoss="41.86" rerouteNo="0" devices="tripinfo_westEastTop.7 ssm_westEastTop.7" vType="carCustom" speedFactor="1.13" vaporized=""/>
    <tripinfo id="southNorth.7" depart="38.00" departLane="southJunction_1" departPos="5.10" departSpeed="17.31" departDelay="0.04" arrival="128.00" arrivalLane="junctionNorth_0" arrivalPos="492.80" arrivalSpeed="21.98" duration="90.00" routeLength="995.01" waitingTime="8.00" waitingCount="2" stopTime="0.00" timeLoss="44.72" rerouteNo="0" devices="tripinfo_southNorth.7 ssm_southNorth.7" vType="carCustom" speedFactor="1.11" vaporized=""/>
    <tripinfo id="southEast.10" depart="74.00" departLane="southJunction_0" departPos="5.10" departSpeed="21.73" departDelay="0.72" arrival="133.00" arrivalLane="junctionEast_0" arrivalPos="492.80" arrivalSpeed="21.12" duration="59.00" routeLength="989.53" waitingTime="0.00" waitingCount="0" stopTime="0.00" timeLoss="13.71" rerouteNo="0" devices="tripinfo_southEast.10 ssm_southEast.10" vType="carCustom" speedFactor="1.18" vaporized=""/>
    <tripinfo id="westEastTop.8" depart="48.00" departLane="westJunction_1" departPos="5.10" departSpeed="7.18" departDelay="0.90" arrival="134.00" arrivalLane="junctionEast_1" arrivalPos="492.80" arrivalSpeed="21.70" duration="86.00" routeLength="994.90" waitingTime="4.00" waitingCount="1" stopTime="0.00" timeLoss="40.82" rerouteNo="0" devices="tripinfo_westEastTop.8 ssm_westEastTop.8" vType="carCustom" speedFactor="1.02" vaporized=""/>
    <tripinfo id="westEastTop.9" depart="52.00" departLane="westJunction_1" departPos="5.10" departSpeed="8.23" departDelay="0.51" arrival="140.00" arrivalLane="junctionEast_1" arrivalPos="492.80" arrivalSpeed="21.76" duration="88.00" routeLength="994.90" waitingTime="0.00" waitingCount="0" stopTime="0.00" timeLoss="42.97" rerouteNo="0" devices="tripinfo_westEastTop.9 ssm_westEastTop.9" vType="carCustom" speedFactor="1.04" vaporized=""/>
    <tripinfo id="southNorth.8" depart="44.00" departLane="southJunction_1" departPos="5.10" departSpeed="12.62" departDelay="0.39" arrival="141.00" arrivalLane="junctionNorth_0" arrivalPos="492.80" arrivalSpeed="21.91" duration="97.00" routeLength="995.01" waitingTime="13.00" waitingCount="3" stopTime="0.00" timeLoss="51.49" rerouteNo="0" devices="tripinfo_southNorth.8 ssm_southNorth.8" vType="carCustom" speedFactor="0.83" vaporized=""/>
    <tripinfo id="southEast.11" depart="77.00" departLane="southJunction_0" departPos="5.10" departSpeed="18.85" departDelay="0.78" arrival="142.00" arrivalLane="junctionEast_0" arrivalPos="492.80" arrivalSpeed="21.02" duration="65.00" routeLength="989.53" waitingTime="0.00" waitingCount="0" stopTime="0.00" timeLoss="19.11" rerouteNo="0" devices="tripinfo_southEast.11 ssm_southEast.11" vType="carCustom" speedFactor="1.11" vaporized=""/>
    <tripinfo id="westEastTop.10" depart="55.00" departLane="westJunction_1" departPos="5.10" departSpeed="8.41" departDelay="3.38" arrival="148.00" arrivalLane="junctionEast_1" arrivalPos="492.80" arrivalSpeed="21.03" duration="93.00" routeLength="994.90" waitingTime="4.00" waitingCount="1" stopTime="0.00" timeLoss="47.49" rerouteNo="0" devices="tripinfo_westEastTop.10 ssm_westEastTop.10" vType="carCustom" speedFactor="0.83" vaporized=""/>
    <tripinfo id="westEastBottom0.6" depart="84.00" departLane="westJunction_0" departPos="5.10" departSpeed="18.10" departDelay="0.84" arrival="148.00" arrivalLane="junctionEast_0" arrivalPos="492.80" arrivalSpeed="21.33" duration="64.00" routeLength="994.90" waitingTime="5.00" waitingCount="1" stopTime="0.00" timeLoss="19.01" rerouteNo="0" devices="tripinfo_westEastBottom0.6 ssm_westEastBottom0.6" vType="carCustom" speedFactor="1.02" vaporized=""/>
    <tripinfo id="westEastTop.11" depart="59.00" departLane="westJunction_1" departPos="5.10" departSpeed="7.15" departDelay="0.72" arrival="154.00" arrivalLane="junctionEast_1" arrivalPos="492.80" arrivalSpeed="21.52" duration="95.00" routeLength="994.90" waitingTime="0.00" waitingCount="0" stopTime="0.00" timeLoss="49.75" rerouteNo="0" devices="tripinfo_westEastTop.11 ssm_westEastTop.11" vType="carCustom" speedFactor="1.00" vaporized=""/>
    <tripinfo id="westEastBottom0.7" depart="87.00" departLane="westJunction_0" departPos="5.10" departSpeed="17.69" departDelay="0.88" arrival="155.00" arrivalLane="junctionEast_0" arrivalPos="492.80" arrivalSpeed="21.74" duration="68.00" routeLength="994.90" waitingTime="0.00" waitingCount="0" stopTime="0.00" timeLoss="22.28" rerouteNo="0" devices="tripinfo_westEastBottom0.7 ssm_westEastBottom0.7" vType="carCustom" speedFactor="1.13" vaporized=""/>
    <tripinfo id="westEastTop.12" depart="63.00" departLane="westJunction_1" departPos="5.10" departSpeed="6.28" departDelay="0.83" arrival="160.00" arrivalLane="junctionEast_1" arrivalPos="492.80" arrivalSpeed="21.55" duration="97.00" routeLength="994.90" waitingTime="0.00" waitingCount="0" stopTime="0.00" timeLoss="51.67" rerouteNo="0" devices="tripinfo_westEastTop.12 ssm_westEastTop.12" vType="carCustom" speedFactor="1.11" vaporized=""/>
    <tripinfo id="southEast.12" depart="82.00" departLane="southJunction_0" departPos="5.10" departSpeed="14.61" departDelay="0.14" arrival="160.00" arrivalLane="junctionEast_0" arrivalPos="492.80" arrivalSpeed="21.45" duration="78.00" routeLength="989.53" waitingTime="2.00" waitingCount="1" stopTime="0.00" timeLoss="32.37" rerouteNo="0" devices="tripinfo_southEast.12 ssm_southEast.12" vType="carCustom" speedFactor="0.92" vaporized=""/>
    <tripinfo id="westEastTop.13" depart="77.00" departLane="westJunction_1" departPos="5.10" departSpeed="7.69" departDelay="0.20" arrival="166.00" arrivalLane="junctionEast_1" arrivalPos="492.80" arrivalSpeed="21.03" duration="89.00" routeLength="994.90" waitingTime="0.00" waitingCount="0" stopTime="0.00" timeLoss="43.52" rerouteNo="0" devices="tripinfo_westEastTop.13 ssm_westEastTop.13" vType="carCustom" speedFactor="1.22" vaporized=""/>
    <tripinfo id="southEast.15" depart="91.00" departLane="southJunction_0" departPos="5.10" departSpeed="8.68" departDelay="1.10" arrival="166.00" arrivalLane="junctionEast_0" arrivalPos="492.80" arrivalSpeed="20.96" duration="75.00" routeLength="989.53" waitingTime="0.00" waitingCount="0" stopTime="0.00" timeLoss="28.96" rerouteNo="0" devices="tripinfo_southEast.15 ssm_southEast.15" vType="carCustom" speedFactor="1.00" vaporized=""/>
    <tripinfo id="southEast.19" depart="118.00" departLane="southJunction_0" departPos="5.10" departSpeed="13.13" departDelay="0.14" arrival="166.00" arrivalLane="junctionEast_0" arrivalPos="492.80" arrivalSpeed="4.60" duration="48.00" routeLength="989.53" waitingTime="1.00" waitingCount="1" stopTime="0.00" timeLoss="24.70" rerouteNo="0" devices="tripinfo_southEast.19 ssm_southEast.19" vType="carCustom" speedFactor="0.90" vaporized="teleport"/>
    <tripinfo id="southNorth.9" depart="66.00" departLane="southJunction_1" departPos="5.10" departSpeed="12.04" departDelay="0.28" arrival="167.00" arrivalLane="junctionNorth_0" arrivalPos="492.80" arrivalSpeed="22.13" duration="101.00" routeLength="995.01" waitingTime="28.00" waitingCount="3" stopTime="0.00" timeLoss="55.80" rerouteNo="0" devices="tripinfo_southNorth.9 ssm_southNorth.9" vType="carCustom" speedFactor="1.05" vaporized=""/>
    <tripinfo id="westEastTop.14" depart="79.00" departLane="westJunction_1" departPos="5.10" departSpeed="11.03" departDelay="1.06" arrival="171.00" arrivalLane="junctionEast_1" arrivalPos="492.80" arrivalSpeed="20.93" duration="92.00" routeLength="994.90" waitingTime="0.00" waitingCount="0" stopTime="0.00" timeLoss="47.03" rerouteNo="0" devices="tripinfo_westEastTop.14 ssm_westEastTop.14" vType="carCustom" speedFactor="0.94" vaporized=""/>
    <tripinfo id="westEastBottom0.8" depart="99.00" departLane="westJunction_0" departPos="5.10" departSpeed="14.91" departDelay="0.81" arrival="172.00" arrivalLane="junctionEast_0" arrivalPos="492.80" arrivalSpeed="21.46" duration="73.00" routeLength="994.90" waitingTime="0.00" waitingCount="0" stopTime="0.00" timeLoss="27.41" rerouteNo="0" devices="tripinfo_westEastBottom0.8 ssm_westEastBottom0.8" vType="carCustom" speedFactor="1.12" vaporized=""/>
    <tripinfo id="southNorth.10" depart="68.00" departLane="southJunction_1" departPos="5.10" departSpeed="16.27" departDelay="0.55" arrival="174.00" arrivalLane="junctionNorth_0" arrivalPos="492.80" arrivalSpeed="22.18" duration="106.00" routeLength="995.01" waitingTime="20.00" waitingCount="2" stopTime="0.00" timeLoss="60.49" rerouteNo="0" devices="tripinfo_southNorth.10 ssm_southNorth.10" vType="carCustom" speedFactor="1.12" vaporized=""/>
    <tripinfo id="southEast.13" depart="86.00" departLane="southJunction_0" departPos="5.10" departSpeed="13.29" departDelay="0.85" arrival="177.00" arrivalLane="junctionEast_0" arrivalPos="492.80" arrivalSpeed="21.15" duration="91.00" routeLength="989.53" waitingTime="0.00" waitingCount="0" stopTime="0.00" timeLoss="44.84" rerouteNo="0" devices="tripinfo_southEast.13 ssm_southEast.13" vType="carCustom" speedFactor="0.98" vaporized=""/>
    <tripinfo id="westEastTop.15" depart="89.00" departLane="westJunction_1" departPos="5.10" departSpeed="9.61" departDelay="0.24" arrival="177.00" arrivalLane="junctionEast_1" arrivalPos="492.80" arrivalSpeed="21.09" duration="88.00" routeLength="994.90" waitingTime="0.00" waitingCount="0" stopTime="0.00" timeLoss="42.37" rerouteNo="0" devices="tripinfo_westEastTop.15 ssm_westEastTop.15" vType="carCustom" speedFactor="1.16" vaporized=""/>
    <tripinfo id="westEastTop.16" depart="92.00" departLane="westJunction_1" departPos="5.10" departSpeed="13.25" departDelay="0.64" arrival="182.00" arrivalLane="junctionEast_1" arrivalPos="492.80" arrivalSpeed="22.22" duration="90.00" routeLength="994.90" waitingTime="0.00" waitingCount="0" stopTime="0.00" timeLoss="44.78" rerouteNo="0" devices="tripinfo_westEastTop.16 ssm_westEastTop.16" vType="carCustom" speedFactor="1.14" vaporized=""/>
    <tripinfo id="southNorth.11" depart="105.00" departLane="southJunction_1" departPos="5.10" departSpeed="21.62" departDelay="0.01" arrival="182.00" arrivalLane="junctionNorth_0" arrivalPos="492.80" arrivalSpeed="21.32" duration="77.00" routeLength="995.01" waitingTime="10.00" waitingCount="2" stopTime="0.00" timeLoss="31.86" rerouteNo="0" devices="tripinfo_southNorth.11 ssm_southNorth.11" vType="carCustom" speedFactor="1.09" vaporized=""/>
    <tripinfo id="southEast.14" depart="89.00" departLane="southJunction_0" departPos="5.10" departSpeed="11.87" departDelay="0.85" arrival="183.00" arrivalLane="junctionEast_0" arrivalPos="492.80" arrivalSpeed="21.88" duration="94.00" routeLength="989.53" waitingTime="0.00" waitingCount="0" stopTime="0.00" timeLoss="47.35" rerouteNo="0" devices="tripinfo_southEast.14 ssm_southEast.14" vType="carCustom" speedFactor="0.93" vaporized=""/>
    <tripinfo id="westEastTop.17" depart="94.00" departLane="westJunction_1" departPos="5.10" departSpeed="9.90" departDelay="2.51" arrival="187.00" arrivalLane="junctionEast_1" arrivalPos="492.80" arrivalSpeed="22.21" duration="93.00" routeLength="994.90" waitingTime="0.00" waitingCount="0" stopTime="0.00" timeLoss="48.17" rerouteNo="0" devices="tripinfo_westEastTop.17 ssm_westEastTop.17" vType="carCustom" speedFactor="0.98" vaporized=""/>
    <tripinfo id="westEastBottom0.9" depart="103.00" departLane="westJunction_0" departPos="5.10" departSpeed="18.67" departDelay="0.05" arrival="188.00" arrivalLane="junctionEast_0" arrivalPos="492.80" arrivalSpeed="21.30" duration="85.00" routeLength="994.90" waitingTime="3.00" waitingCount="1" stopTime="0.00" timeLoss="39.54" rerouteNo="0" devices="tripinfo_westEastBottom0.9 ssm_westEastBottom0.9" vType="carCustom" speedFactor="1.09" vaporized=""/>
    <tripinfo id="southNorth.12" depart="113.00" departLane="southJunction_1" departPos="5.10" departSpeed="17.07" departDelay="0.56" arrival="189.00" arrivalLane="junctionNorth_0" arrivalPos="492.80" arrivalSpeed="21.49" duration="76.00" routeLength="995.01" waitingTime="3.00" waitingCount="1" stopTime="0.00" timeLoss="30.34" rerouteNo="0" devices="tripinfo_southNorth.12 ssm_southNorth.12" vType="carCustom" speedFactor="0.95" vaporized=""/>
    <tripinfo id="southEast.16" depart="104.00" departLane="southJunction_0" departPos="5.10" departSpeed="12.11" departDelay="0.43" arrival="193.00" arrivalLane="junctionEast_0" arrivalPos="492.80" arrivalSpeed="21.40" duration="89.00" routeLength="989.53" waitingTime="3.00" waitingCount="1" stopTime="0.00" timeLoss="43.12" rerouteNo="0" devices="tripinfo_southEast.16 ssm_southEast.16" vType="carCustom" speedFactor="1.08" vaporized=""/>
    <tripinfo id="westEastTop.18" depart="104.00" departLane="westJunction_1" departPos="5.10" departSpeed="9.52" departDelay="0.41" arrival="193.00" arrivalLane="junctionEast_1" arrivalPos="492.80" arrivalSpeed="20.98" duration="89.00" routeLength="994.90" waitingTime="0.00" waitingCount="0" stopTime="0.00" timeLoss="43.30" rerouteNo="0" devices="tripinfo_westEastTop.18 ssm_westEastTop.18" vType="carCustom" speedFactor="1.03" vaporized=""/>
    <tripinfo id="southEast.17" depart="106.00" departLane="southJunction_0" departPos="5.10" departSpeed="15.53" departDelay="1.22" arrival="198.00" arrivalLane="junctionEast_1" arrivalPos="492.80" arrivalSpeed="21.38" duration="92.00" routeLength="989.53" waitingTime="0.00" waitingCount="0" stopTime="0.00" timeLoss="45.58" rerouteNo="0" devices="tripinfo_southEast.17 ssm_southEast.17" vType="carCustom" speedFactor="0.97" vaporized=""/>
    <tripinfo id="southEast.18" depart="108.00" departLane="southJunction_0" departPos="5.10" departSpeed="11.44" departDelay="1.35" arrival="198.00" arrivalLane="junctionEast_0" arrivalPos="492.80" arrivalSpeed="21.45" duration="90.00" routeLength="989.53" waitingTime="0.00" waitingCount="0" stopTime="0.00" timeLoss="44.55" rerouteNo="0" devices="tripinfo_southEast.18 ssm_southEast.18" vType="carCustom" speedFactor="1.11" vaporized=""/>
    <tripinfo id="southNorth.13" depart="121.00" departLane="southJunction_1" departPos="5.10" departSpeed="15.88" departDelay="0.49" arrival="199.00" arrivalLane="junctionNorth_0" arrivalPos="492.80" arrivalSpeed="21.54" duration="78.00" routeLength="995.01" waitingTime="7.00" waitingCount="1" stopTime="0.00" timeLoss="32.74" rerouteNo="0" devices="tripinfo_southNorth.13 ssm_southNorth.13" vType="carCustom" speedFactor="1.12" vaporized=""/>