<?xml version="1.0" encoding="UTF-8"?>

<!-- generated on 2025-04-29 08:23:39 by Eclipse SUMO sumo Version 1.20.0
<configuration xmlns:xsi="http://www.w3.org/2001/XMLSchema-instance" xsi:noNamespaceSchemaLocation="http://sumo.dlr.de/xsd/sumoConfiguration.xsd">

    <input>
        <net-file value="nets/2lane_unprotected_right/2lane_unprotected_right.net.xml"/>
        <route-files value="nets/2lane_unprotected_right/2lane_unprotected_right.rou.xml"/>
    </input>

    <output>
        <tripinfo-output value="traces/transs50f1_s50_f0.5_random/0155_tripinfo.xml"/>
        <collision-output value="traces/transs50f1_s50_f0.5_random/0155_collisions.xml"/>
        <statistic-output value="traces/transs50f1_s50_f0.5_random/0155_statistics.xml"/>
    </output>

    <processing>
        <collision.action value="teleport"/>
        <collision.check-junctions value="true"/>
        <time-to-teleport value="-1"/>
        <waiting-time-memory value="1000"/>
        <max-depart-delay value="-1"/>
        <default.speeddev value="0.1"/>
    </processing>

    <report>
        <no-warnings value="true"/>
    </report>

    <ssm_device>
        <device.ssm.probability value="1.0"/>
        <device.ssm.measures value="BR"/>
        <device.ssm.file value="/Users/finn/Code/CausalKnowledgeTransfer-4-SafeRL/traces/transs50f1_s50_f0.5_random/0155_ssm.xml"/>
    </ssm_device>

    <traci_server>
        <remote-port value="64328"/>
    </traci_server>

    <random_number>
        <random value="true"/>
    </random_number>

</configuration>
-->

<tripinfos xmlns:xsi="http://www.w3.org/2001/XMLSchema-instance" xsi:noNamespaceSchemaLocation="http://sumo.dlr.de/xsd/tripinfo_file.xsd">
    <tripinfo id="southNorth.0" depart="2.00" departLane="southJunction_1" departPos="5.10" departSpeed="22.22" departDelay="0.36" arrival="50.00" arrivalLane="junctionNorth_0" arrivalPos="492.80" arrivalSpeed="21.60" duration="48.00" routeLength="995.01" waitingTime="0.00" waitingCount="0" stopTime="0.00" timeLoss="2.53" rerouteNo="0" devices="tripinfo_southNorth.0 ssm_southNorth.0" vType="carCustom" speedFactor="0.95" vaporized=""/>
    <tripinfo id="westEastTop.0" depart="8.00" departLane="westJunction_1" departPos="5.10" departSpeed="22.22" departDelay="0.28" arrival="57.00" arrivalLane="junctionEast_1" arrivalPos="492.80" arrivalSpeed="21.42" duration="49.00" routeLength="994.90" waitingTime="0.00" waitingCount="0" stopTime="0.00" timeLoss="3.34" rerouteNo="0" devices="tripinfo_westEastTop.0 ssm_westEastTop.0" vType="carCustom" speedFactor="1.10" vaporized=""/>
    <tripinfo id="southNorth.1" depart="6.00" departLane="southJunction_1" departPos="5.10" departSpeed="22.00" departDelay="0.51" arrival="65.00" arrivalLane="junctionNorth_0" arrivalPos="492.80" arrivalSpeed="21.23" duration="59.00" routeLength="995.01" waitingTime="0.00" waitingCount="0" stopTime="0.00" timeLoss="13.56" rerouteNo="0" devices="tripinfo_southNorth.1 ssm_southNorth.1" vType="carCustom" speedFactor="0.99" vaporized=""/>
    <tripinfo id="westEastTop.1" depart="13.00" departLane="westJunction_1" departPos="5.10" departSpeed="22.18" departDelay="0.04" arrival="70.00" arrivalLane="junctionEast_1" arrivalPos="492.80" arrivalSpeed="21.49" duration="57.00" routeLength="994.90" waitingTime="0.00" waitingCount="0" stopTime="0.00" timeLoss="11.57" rerouteNo="0" devices="tripinfo_westEastTop.1 ssm_westEastTop.1" vType="carCustom" speedFactor="1.01" vaporized=""/>
    <tripinfo id="westEastBottom0.1" depart="23.00" departLane="westJunction_0" departPos="5.10" departSpeed="18.94" departDelay="0.32" arrival="74.00" arrivalLane="junctionEast_0" arrivalPos="492.80" arrivalSpeed="21.19" duration="51.00" routeLength="994.90" waitingTime="0.00" waitingCount="0" stopTime="0.00" timeLoss="6.11" rerouteNo="0" devices="tripinfo_westEastBottom0.1 ssm_westEastBottom0.1" vType="carCustom" speedFactor="0.93" vaporized=""/>
    <tripinfo id="westEastBottom0.0" depart="18.00" departLane="westJunction_0" departPos="5.10" departSpeed="22.22" departDelay="0.42" arrival="80.00" arrivalLane="junctionEast_1" arrivalPos="492.80" arrivalSpeed="22.08" duration="62.00" routeLength="994.90" waitingTime="0.00" waitingCount="0" stopTime="0.00" timeLoss="16.52" rerouteNo="0" devices="tripinfo_westEastBottom0.0 ssm_westEastBottom0.0" vType="carCustom" speedFactor="0.98" vaporized=""/>
    <tripinfo id="southNorth.2" depart="8.00" departLane="southJunction_1" departPos="5.10" departSpeed="18.83" departDelay="2.37" arrival="82.00" arrivalLane="junctionNorth_0" arrivalPos="492.80" arrivalSpeed="21.82" duration="74.00" routeLength="995.01" waitingTime="2.00" waitingCount="1" stopTime="0.00" timeLoss="28.30" rerouteNo="0" devices="tripinfo_southNorth.2 ssm_southNorth.2" vType="carCustom" speedFactor="0.99" vaporized=""/>
    <tripinfo id="southEast.0" depart="24.00" departLane="southJunction_0" departPos="5.10" departSpeed="22.22" departDelay="0.16" arrival="83.00" arrivalLane="junctionEast_0" arrivalPos="492.80" arrivalSpeed="21.14" duration="59.00" routeLength="989.53" waitingTime="0.00" waitingCount="0" stopTime="0.00" timeLoss="13.11" rerouteNo="0" devices="tripinfo_southEast.0 ssm_southEast.0" vType="carCustom" speedFactor="0.94" vaporized=""/>
    <tripinfo id="westEastBottom0.2" depart="27.00" departLane="westJunction_0" departPos="5.10" departSpeed="16.60" departDelay="0.31" arrival="90.00" arrivalLane="junctionEast_1" arrivalPos="492.80" arrivalSpeed="21.37" duration="63.00" routeLength="994.90" waitingTime="0.00" waitingCount="0" stopTime="0.00" timeLoss="17.29" rerouteNo="0" devices="tripinfo_westEastBottom0.2 ssm_westEastBottom0.2" vType="carCustom" speedFactor="1.22" vaporized=""/>
    <tripinfo id="southNorth.3" depart="23.00" departLane="southJunction_1" departPos="5.10" departSpeed="12.69" departDelay="0.16" arrival="97.00" arrivalLane="junctionNorth_0" arrivalPos="492.80" arrivalSpeed="22.20" duration="74.00" routeLength="995.01" waitingTime="4.00" waitingCount="1" stopTime="0.00" timeLoss="28.89" rerouteNo="0" devices="tripinfo_southNorth.3 ssm_southNorth.3" vType="carCustom" speedFactor="0.96" vaporized=""/>
    <tripinfo id="westEastTop.2" depart="30.00" departLane="westJunction_1" departPos="5.10" departSpeed="12.10" departDelay="0.92" arrival="98.00" arrivalLane="junctionEast_0" arrivalPos="492.80" arrivalSpeed="21.29" duration="68.00" routeLength="994.90" waitingTime="0.00" waitingCount="0" stopTime="0.00" timeLoss="22.93" rerouteNo="0" devices="tripinfo_westEastTop.2 ssm_westEastTop.2" vType="carCustom" speedFactor="0.91" vaporized=""/>
    <tripinfo id="westEastTop.3" depart="40.00" departLane="westJunction_1" departPos="5.10" departSpeed="16.07" departDelay="0.81" arrival="106.00" arrivalLane="junctionEast_0" arrivalPos="492.80" arrivalSpeed="22.20" duration="66.00" routeLength="994.90" waitingTime="0.00" waitingCount="0" stopTime="0.00" timeLoss="20.92" rerouteNo="0" devices="tripinfo_westEastTop.3 ssm_westEastTop.3" vType="carCustom" speedFactor="1.03" vaporized=""/>
    <tripinfo id="westEastBottom0.3" depart="52.00" departLane="westJunction_0" departPos="5.10" departSpeed="16.61" departDelay="0.29" arrival="109.00" arrivalLane="junctionEast_0" arrivalPos="492.80" arrivalSpeed="21.11" duration="57.00" routeLength="994.90" waitingTime="0.00" waitingCount="0" stopTime="0.00" timeLoss="11.67" rerouteNo="0" devices="tripinfo_westEastBottom0.3 ssm_westEastBottom0.3" vType="carCustom" speedFactor="1.13" vaporized=""/>
    <tripinfo id="westEastTop.4" depart="42.00" departLane="westJunction_1" departPos="5.10" departSpeed="15.92" departDelay="2.76" arrival="114.00" arrivalLane="junctionEast_1" arrivalPos="492.80" arrivalSpeed="21.84" duration="72.00" routeLength="994.90" waitingTime="0.00" waitingCount="0" stopTime="0.00" timeLoss="27.00" rerouteNo="0" devices="tripinfo_westEastTop.4 ssm_westEastTop.4" vType="carCustom" speedFactor="0.97" vaporized=""/>
    <tripinfo id="southEast.1" depart="58.00" departLane="southJunction_0" departPos="5.10" departSpeed="22.22" departDelay="0.08" arrival="118.00" arrivalLane="junctionEast_0" arrivalPos="492.80" arrivalSpeed="21.63" duration="60.00" routeLength="989.53" waitingTime="0.00" waitingCount="0" stopTime="0.00" timeLoss="13.68" rerouteNo="0" devices="tripinfo_southEast.1 ssm_southEast.1" vType="carCustom" speedFactor="1.09" vaporized=""/>
    <tripinfo id="westEastTop.5" depart="58.00" departLane="westJunction_1" departPos="5.10" departSpeed="12.36" departDelay="0.00" arrival="123.00" arrivalLane="junctionEast_1" arrivalPos="492.80" arrivalSpeed="20.97" duration="65.00" routeLength="994.90" waitingTime="0.00" waitingCount="0" stopTime="0.00" timeLoss="20.01" rerouteNo="0" devices="tripinfo_westEastTop.5 ssm_westEastTop.5" vType="carCustom" speedFactor="0.95" vaporized=""/>
    <tripinfo id="southNorth.4" depart="27.00" departLane="southJunction_1" departPos="5.10" departSpeed="15.83" departDelay="0.02" arrival="126.00" arrivalLane="junctionNorth_0" arrivalPos="492.80" arrivalSpeed="21.86" duration="99.00" routeLength="995.01" waitingTime="21.00" waitingCount="1" stopTime="0.00" timeLoss="53.54" rerouteNo="0" devices="tripinfo_southNorth.4 ssm_southNorth.4" vType="carCustom" speedFactor="1.00" vaporized=""/>
    <tripinfo id="westEastTop.6" depart="63.00" departLane="westJunction_1" departPos="5.10" departSpeed="14.94" departDelay="0.88" arrival="133.00" arrivalLane="junctionEast_1" arrivalPos="492.80" arrivalSpeed="22.14" duration="70.00" routeLength="994.90" waitingTime="0.00" waitingCount="0" stopTime="0.00" timeLoss="24.25" rerouteNo="0" devices="tripinfo_westEastTop.6 ssm_westEastTop.6" vType="carCustom" speedFactor="0.97" vaporized=""/>
    <tripinfo id="southEast.2" depart="74.00" departLane="southJunction_0" departPos="5.10" departSpeed="18.99" departDelay="0.69" arrival="140.00" arrivalLane="junctionEast_1" arrivalPos="492.80" arrivalSpeed="21.99" duration="66.00" routeLength="989.53" waitingTime="0.00" waitingCount="0" stopTime="0.00" timeLoss="19.72" rerouteNo="0" devices="tripinfo_southEast.2 ssm_southEast.2" vType="carCustom" speedFactor="0.79" vaporized=""/>
    <tripinfo id="southNorth.5" depart="37.00" departLane="southJunction_1" departPos="5.10" departSpeed="11.43" departDelay="0.21" arrival="142.00" arrivalLane="junctionNorth_0" arrivalPos="492.80" arrivalSpeed="21.76" duration="105.00" routeLength="995.01" waitingTime="21.00" waitingCount="2" stopTime="0.00" timeLoss="59.81" rerouteNo="0" devices="tripinfo_southNorth.5 ssm_southNorth.5" vType="carCustom" speedFactor="0.86" vaporized=""/>
    <tripinfo id="westEastTop.7" depart="65.00" departLane="westJunction_1" departPos="5.10" departSpeed="12.36" departDelay="1.03" arrival="147.00" arrivalLane="junctionEast_0" arrivalPos="492.80" arrivalSpeed="21.18" duration="82.00" routeLength="994.90" waitingTime="0.00" waitingCount="0" stopTime="0.00" timeLoss="37.06" rerouteNo="0" devices="tripinfo_westEastTop.7 ssm_westEastTop.7" vType="carCustom" speedFactor="1.00" vaporized=""/>
    <tripinfo id="southEast.3" depart="90.00" departLane="southJunction_0" departPos="5.10" departSpeed="17.53" departDelay="0.75" arrival="153.00" arrivalLane="junctionEast_1" arrivalPos="492.80" arrivalSpeed="21.78" duration="63.00" routeLength="989.53" waitingTime="0.00" waitingCount="0" stopTime="0.00" timeLoss="17.39" rerouteNo="0" devices="tripinfo_southEast.3 ssm_southEast.3" vType="carCustom" speedFactor="1.21" vaporized=""/>
    <tripinfo id="westEastBottom0.4" depart="86.00" departLane="westJunction_0" departPos="5.10" departSpeed="22.22" departDelay="0.46" arrival="154.00" arrivalLane="junctionEast_0" arrivalPos="492.80" arrivalSpeed="21.25" duration="68.00" routeLength="994.90" waitingTime="3.00" waitingCount="1" stopTime="0.00" timeLoss="22.17" rerouteNo="0" devices="tripinfo_westEastBottom0.4 ssm_westEastBottom0.4" vType="carCustom" speedFactor="1.08" vaporized=""/>
    <tripinfo id="westEastTop.8" depart="68.00" departLane="westJunction_1" departPos="5.10" departSpeed="7.72" departDelay="0.45" arrival="161.00" arrivalLane="junctionEast_1" arrivalPos="492.80" arrivalSpeed="21.34" duration="93.00" routeLength="994.90" waitingTime="0.00" waitingCount="0" stopTime="0.00" timeLoss="47.91" rerouteNo="0" devices="tripinfo_westEastTop.8 ssm_westEastTop.8" vType="carCustom" speedFactor="1.17" vaporized=""/>
    <tripinfo id="southNorth.6" depart="53.00" departLane="southJunction_1" departPos="5.10" departSpeed="12.07" departDelay="0.61" arrival="165.00" arrivalLane="junctionNorth_0" arrivalPos="492.80" arrivalSpeed="21.11" duration="112.00" routeLength="995.01" waitingTime="26.00" waitingCount="3" stopTime="0.00" timeLoss="66.54" rerouteNo="0" devices="tripinfo_southNorth.6 ssm_southNorth.6" vType="carCustom" speedFactor="0.90" vaporized=""/>
    <tripinfo id="westEastTop.9" depart="71.00" departLane="westJunction_1" departPos="5.10" departSpeed="5.15" departDelay="0.21" arrival="169.00" arrivalLane="junctionEast_0" arrivalPos="492.80" arrivalSpeed="21.81" duration="98.00" routeLength="994.90" waitingTime="0.00" waitingCount="0" stopTime="0.00" timeLoss="52.64" rerouteNo="0" devices="tripinfo_westEastTop.9 ssm_westEastTop.9" vType="carCustom" speedFactor="1.05" vaporized=""/>
    <tripinfo id="southNorth.7" depart="55.00" departLane="southJunction_1" departPos="5.10" departSpeed="15.42" departDelay="2.49" arrival="174.00" arrivalLane="junctionNorth_0" arrivalPos="492.80" arrivalSpeed="21.85" duration="119.00" routeLength="995.01" waitingTime="19.00" waitingCount="2" stopTime="0.00" timeLoss="73.50" rerouteNo="0" devices="tripinfo_southNorth.7 ssm_southNorth.7" vType="carCustom" speedFactor="0.95" vaporized=""/>
    <tripinfo id="westEastBottom0.5" depart="116.00" departLane="westJunction_0" departPos="5.10" departSpeed="22.22" departDelay="0.96" arrival="174.00" arrivalLane="junctionEast_1" arrivalPos="492.80" arrivalSpeed="21.07" duration="58.00" routeLength="994.90" waitingTime="0.00" waitingCount="0" stopTime="0.00" timeLoss="12.49" rerouteNo="0" devices="tripinfo_westEastBottom0.5 ssm_westEastBottom0.5" vType="carCustom" speedFactor="1.07" vaporized=""/>
    <tripinfo id="westEastTop.10" depart="75.00" departLane="westJunction_1" departPos="5.10" departSpeed="4.74" departDelay="0.52" arrival="181.00" arrivalLane="junctionEast_0" arrivalPos="492.80" arrivalSpeed="21.83" duration="106.00" routeLength="994.90" waitingTime="0.00" waitingCount="0" stopTime="0.00" timeLoss="60.44" rerouteNo="0" devices="tripinfo_westEastTop.10 ssm_westEastTop.10" vType="carCustom" speedFactor="0.92" vaporized=""/>
    <tripinfo id="westEastBottom0.6" depart="118.00" departLane="westJunction_0" departPos="5.10" departSpeed="21.21" departDelay="0.88" arrival="182.00" arrivalLane="junctionEast_1" arrivalPos="492.80" arrivalSpeed="21.30" duration="64.00" routeLength="994.90" waitingTime="0.00" waitingCount="0" stopTime="0.00" timeLoss="18.40" rerouteNo="0" devices="tripinfo_westEastBottom0.6 ssm_westEastBottom0.6" vType="carCustom" speedFactor="1.13" vaporized=""/>
    <tripinfo id="southNorth.8" depart="67.00" departLane="southJunction_1" departPos="5.10" departSpeed="11.90" departDelay="0.49" arrival="185.00" arrivalLane="junctionNorth_0" arrivalPos="492.80" arrivalSpeed="21.69" duration="118.00" routeLength="995.01" waitingTime="23.00" waitingCount="3" stopTime="0.00" timeLoss="72.73" rerouteNo="0" devices="tripinfo_southNorth.8 ssm_southNorth.8" vType="carCustom" speedFactor="1.25" vaporized=""/>
    <tripinfo id="westEastTop.11" depart="79.00" departLane="westJunction_1" departPos="5.10" departSpeed="4.04" departDelay="1.77" arrival="188.00" arrivalLane="junctionEast_0" arrivalPos="492.80" arrivalSpeed="21.57" duration="109.00" routeLength="994.90" waitingTime="0.00" waitingCount="0" stopTime="0.00" timeLoss="63.96" rerouteNo="0" devices="tripinfo_westEastTop.11 ssm_westEastTop.11" vType="carCustom" speedFactor="1.15" vaporized=""/>
    <tripinfo id="westEastTop.12" depart="83.00" departLane="westJunction_1" departPos="5.10" departSpeed="3.06" departDelay="5.07" arrival="190.00" arrivalLane="junctionEast_1" arrivalPos="492.80" arrivalSpeed="21.52" duration="107.00" routeLength="994.90" waitingTime="0.00" waitingCount="0" stopTime="0.00" timeLoss="61.32" rerouteNo="0" devices="tripinfo_westEastTop.12 ssm_westEastTop.12" vType="carCustom" speedFactor="0.85" vaporized=""/>
    <tripinfo id="southNorth.9" depart="69.00" departLane="southJunction_1" departPos="5.10" departSpeed="13.28" departDelay="1.38" arrival="193.00" arrivalLane="junctionNorth_0" arrivalPos="492.80" arrivalSpeed="21.51" duration="124.00" routeLength="995.01" waitingTime="19.00" waitingCount="2" stopTime="0.00" timeLoss="79.22" rerouteNo="0" devices="tripinfo_southNorth.9 ssm_southNorth.9" vType="carCustom" speedFactor="1.02" vaporized=""/>
    <tripinfo id="southEast.4" depart="127.00" departLane="southJunction_0" departPos="5.10" departSpeed="22.22" departDelay="0.82" arrival="196.00" arrivalLane="junctionEast_0" arrivalPos="492.80" arrivalSpeed="20.94" duration="69.00" routeLength="989.53" waitingTime="0.00" waitingCount="0" stopTime="0.00" timeLoss="23.26" rerouteNo="0" devices="tripinfo_southEast.4 ssm_southEast.4" vType="carCustom" speedFactor="0.99" vaporized=""/>
    <tripinfo id="westEastTop.13" depart="88.00" departLane="westJunction_1" departPos="5.10" departSpeed="3.41" departDelay="5.35" arrival="198.00" arrivalLane="junctionEast_1" arrivalPos="492.80" arrivalSpeed="21.52" duration="110.00" routeLength="994.90" waitingTime="0.00" waitingCount="0" stopTime="0.00" timeLoss="64.40" rerouteNo="0" devices="tripinfo_westEastTop.13 ssm_westEastTop.13" vType="carCustom" speedFactor="1.14" vaporized=""/>
    <tripinfo id="southNorth.10" depart="73.00" departLane="southJunction_1" departPos="5.10" departSpeed="7.85" departDelay="0.85" arrival="203.00" arrivalLane="junctionNorth_0" arrivalPos="492.80" arrivalSpeed="21.89" duration="130.00" routeLength="995.01" waitingTime="20.00" waitingCount="3" stopTime="0.00" timeLoss="85.05" rerouteNo="0" devices="tripinfo_southNorth.10 ssm_southNorth.10" vType="carCustom" speedFactor="1.07" vaporized=""/>
    <tripinfo id="southEast.5" depart="129.00" departLane="southJunction_0" departPos="5.10" departSpeed="20.64" departDelay="2.07" arrival="204.00" arrivalLane="junctionEast_0" arrivalPos="492.80" arrivalSpeed="22.18" duration="75.00" routeLength="989.53" waitingTime="0.00" waitingCount="0" stopTime="0.00" timeLoss="29.15" rerouteNo="0" devices="tripinfo_southEast.5 ssm_southEast.5" vType="carCustom" speedFactor="1.07" vaporized=""/>
    <tripinfo id="westEastTop.14" depart="93.00" departLane="westJunction_1" departPos="5.10" departSpeed="3.81" departDelay="10.25" arrival="205.00" arrivalLane="junctionEast_1" arrivalPos="492.80" arrivalSpeed="21.99" duration="112.00" routeLength="994.90" waitingTime="0.00" waitingCount="0" stopTime="0.00" timeLoss="67.10" rerouteNo="0" devices="tripinfo_westEastTop.14 ssm_westEastTop.14" vType="carCustom" speedFactor="1.04" vaporized=""/>
    <tripinfo id="southNorth.11" depart="78.00" departLane="southJunction_1" departPos="5.10" departSpeed="6.55" departDelay="0.15" arrival="212.00" arrivalLane="junctionNorth_0" arrivalPos="492.80" arrivalSpeed="21.24" duration="134.00" routeLength="995.01" waitingTime="8.00" waitingCount="3" stopTime="0.00" timeLoss="88.60" rerouteNo="0" devices="tripinfo_southNorth.11 ssm_southNorth.11" vType="carCustom" speedFactor="1.06" vaporized=""/>
    <tripinfo id="southEast.6" depart="132.00" departLane="southJunction_0" departPos="5.10" departSpeed="15.90" departDelay="0.17" arrival="212.00" arrivalLane="junctionEast_0" arrivalPos="492.80" arrivalSpeed="21.69" duration="80.00" routeLength="989.53" waitingTime="0.00" waitingCount="0" stopTime="0.00" timeLoss="34.47" rerouteNo="0" devices="tripinfo_southEast.6 ssm_southEast.6" vType="carCustom" speedFactor="1.14" vaporized=""/>
    <tripinfo id="westEastTop.15" depart="98.00" departLane="westJunction_1" departPos="5.10" departSpeed="3.38" departDelay="15.01" arrival="213.00" arrivalLane="junctionEast_1" arrivalPos="492.80" arrivalSpeed="22.01" duration="115.00" routeLength="994.90" waitingTime="0.00" waitingCount="0" stopTime="0.00" timeLoss="70.14" rerouteNo="0" devices="tripinfo_westEastTop.15 ssm_westEastTop.15" vType="carCustom" speedFactor="0.95" vaporized=""/>
    <tripinfo id="westEastBottom0.7" depart="151.00" departLane="westJunction_0" departPos="5.10" departSpeed="15.19" departDelay="0.08" arrival="220.00" arrivalLane="junctionEast_0" arrivalPos="492.80" arrivalSpeed="21.74" duration="69.00" routeLength="994.90" waitingTime="0.00" waitingCount="0" stopTime="0.00" timeLoss="23.47" rerouteNo="0" devices="tripinfo_westEastBottom0.7 ssm_westEastBottom0.7" vType="carCustom" speedFactor="0.99" vaporized=""/>
    <tripinfo id="westEastTop.16" depart="102.00" departLane="westJunction_1" departPos="5.10" departSpeed="3.03" departDelay="17.84" arrival="221.00" arrivalLane="junctionEast_1" arrivalPos="492.80" arrivalSpeed="21.37" duration="119.00" routeLength="994.90" waitingTime="0.00" waitingCount="0" stopTime="0.00" timeLoss="73.63" rerouteNo="0" devices="tripinfo_westEastTop.16 ssm_westEastTop.16" vType="carCustom" speedFactor="0.96" vaporized=""/>
    <tripinfo id="westEastBottom0.11" depart="170.00" departLane="westJunction_0" departPos="5.10" departSpeed="8.61" departDelay="0.01" arrival="224.00" arrivalLane="junctionEast_0" arrivalPos="492.80" arrivalSpeed="7.00" duration="54.00" routeLength="994.90" waitingTime="0.00" waitingCount="0" stopTime="0.00" timeLoss="31.23" rerouteNo="0" devices="tripinfo_westEastBottom0.11 ssm_westEastBottom0.11" vType="carCustom" speedFactor="0.98" vaporized="teleport"/>
    <tripinfo id="southNorth.12" depart="83.00" departLane="southJunction_1" departPos="5.10" departSpeed="6.78" departDelay="0.31" arrival="226.00" arrivalLane="junctionNorth_0" arrivalPos="492.80" arrivalSpeed="21.05" duration="143.00" routeLength="995.01" waitingTime="19.00" waitingCount="3" stopTime="0.00" timeLoss="98.15" rerouteNo="0" devices="tripinfo_southNorth.12 ssm_southNorth.12" vType="carCustom" speedFactor="1.03" vaporized=""/>
    <tripinfo id="southEast.7" depart="142.00" departLane="southJunction_0" departPos="5.10" departSpeed="9.84" departDelay="0.94" arrival="228.00" arrivalLane="junctionEast_0" arrivalPos="492.80" arrivalSpeed="21.38" duration="86.00" routeLength="989.53" waitingTime="0.00" waitingCount="0" stopTime="0.00" timeLoss="39.91" rerouteNo="0" devices="tripinfo_southEast.7 ssm_southEast.7" vType="carCustom" speedFactor="0.91" vaporized=""/>
    <tripinfo id="westEastTop.17" depart="107.00" departLane="westJunction_1" departPos="5.10" departSpeed="2.17" departDelay="20.42" arrival="229.00" arrivalLane="junctionEast_1" arrivalPos="492.80" arrivalSpeed="20.94" duration="122.00" routeLength="994.90" waitingTime="0.00" waitingCount="0" stopTime="0.00" timeLoss="76.33" rerouteNo="0" devices="tripinfo_westEastTop.17 ssm_westEastTop.17" vType="carCustom" speedFactor="0.94" vaporized=""/>
    <tripinfo id="southNorth.13" depart="103.00" departLane="southJunction_1" departPos="5.10" departSpeed="8.33" departDelay="0.20" arrival="235.00" arrivalLane="junctionNorth_0" arrivalPos="492.80" arrivalSpeed="21.53" duration="132.00" routeLength="995.01" waitingTime="15.00" waitingCount="2" stopTime="0.00" timeLoss="87.06" rerouteNo="0" devices="tripinfo_southNorth.13 ssm_southNorth.13" vType="carCustom" speedFactor="0.94" vaporized=""/>
    <tripinfo id="westEastBottom0.8" depart="155.00" departLane="westJunction_0" departPos="5.10" departSpeed="17.24" departDelay="0.71" arrival="235.00" arrivalLane="junctionEast_0" arrivalPos="492.80" arrivalSpeed="21.77" duration="80.00" routeLength="994.90" waitingTime="0.00" waitingCount="0" stopTime="0.00" timeLoss="34.75" rerouteNo="0" devices="tripinfo_westEastBottom0.8 ssm_westEastBottom0.8" vType="carCustom" speedFactor="0.89" vaporized=""/>
    <tripinfo id="westEastTop.18" depart="113.00" departLane="westJunction_1" departPos="5.10" departSpeed="3.15" departDelay="18.82" arrival="236.00" arrivalLane="junctionEast_1" arrivalPos="492.80" arrivalSpeed="21.40" duration="123.00" routeLength="994.90" waitingTime="0.00" waitingCount="0" stopTime="0.00" timeLoss="77.99" rerouteNo="0" devices="tripinfo_westEastTop.18 ssm_westEastTop.18" vType="carCustom" speedFactor="0.84" vaporized=""/>
    <tripinfo id="westEastBottom0.9" depart="160.00" departLane="westJunction_0" departPos="5.10" departSpeed="11.51" departDelay="0.73" arrival="242.00" arrivalLane="junctionEast_0" arrivalPos="492.80" arrivalSpeed="21.71" duration="82.00" routeLength="994.90" waitingTime="0.00" waitingCount="0" stopTime="0.00" timeLoss="37.11" rerouteNo="0" devices="tripinfo_westEastBottom0.9 ssm_westEastBottom0.9" vType="carCustom" speedFactor="1.03" vaporized=""/>
    <tripinfo id="westEastTop.19" depart="118.00" departLane="westJunction_1" departPos="5.10" departSpeed="2.16" departDelay="23.37" arrival="244.00" arrivalLane="junctionEast_1" arrivalPos="492.80" arrivalSpeed="21.37" duration="126.00" routeLength="994.90" waitingTime="0.00" waitingCount="0" stopTime="0.00" timeLoss="80.42" rerouteNo="0" devices="tripinfo_westEastTop.19 ssm_westEastTop.19" vType="carCustom" speedFactor="0.90" vaporized=""/>
    <tripinfo id="southNorth.14" depart="113.00" departLane="southJunction_1" departPos="5.10" departSpeed="11.14" departDelay="0.03" arrival="246.00" arrivalLane="junctionNorth_0" arrivalPos="492.80" arrivalSpeed="21.34" duration="133.00" routeLength="995.01" waitingTime="20.00" waitingCount="2" stopTime="0.00" timeLoss="87.88" rerouteNo="0" devices="tripinfo_southNorth.14 ssm_southNorth.14" vType="carCustom" speedFactor="0.93" vaporized=""/>
    <tripinfo id="southEast.8" depart="174.00" departLane="southJunction_0" departPos="5.10" departSpeed="10.83" departDelay="0.78" arrival="249.00" arrivalLane="junctionEast_0" arrivalPos="492.80" arrivalSpeed="21.36" duration="75.00" routeLength="989.53" waitingTime="0.00" waitingCount="0" stopTime="0.00" timeLoss="29.00" rerouteNo="0" devices="tripinfo_southEast.8 ssm_southEast.8" vType="carCustom" speedFactor="0.89" vaporized=""/>
    <tripinfo id="westEastTop.20" depart="123.00" departLane="westJunction_1" departPos="5.10" departSpeed="2.79" departDelay="24.34" arrival="251.00" arrivalLane="junctionEast_1" arrivalPos="492.80" arrivalSpeed="22.16" duration="128.00" routeLength="994.90" waitingTime="0.00" waitingCount="0" stopTime="0.00" timeLoss="82.74" rerouteNo="0" devices="tripinfo_westEastTop.20 ssm_westEastTop.20" vType="carCustom" speedFactor="1.03" vaporized=""/>
    <tripinfo id="southNorth.15" depart="116.00" departLane="southJunction_1" departPos="5.10" departSpeed="12.75" departDelay="0.35" arrival="257.00" arrivalLane="junctionNorth_0" arrivalPos="492.80" arrivalSpeed="21.10" duration="141.00" routeLength="995.01" waitingTime="20.00" waitingCount="3" stopTime="0.00" timeLoss="95.38" rerouteNo="0" devices="tripinfo_southNorth.15 ssm_southNorth.15" vType="carCustom" speedFactor="1.06" vaporized=""/>
    <tripinfo id="westEastBottom0.10" depart="165.00" departLane="westJunction_0" departPos="5.10" departSpeed="10.92" departDelay="0.84" arrival="257.00" arrivalLane="junctionEast_0" arrivalPos="492.80" arrivalSpeed="22.14" duration="92.00" routeLength="994.90" waitingTime="0.00" waitingCount="0" stopTime="0.00" timeLoss="46.38" rerouteNo="0" devices="tripinfo_westEastBottom0.10 ssm_westEastBottom0.10" vType="carCustom" speedFactor="1.09" vaporized=""/>
    <tripinfo id="westEastTop.21" depart="128.00" departLane="westJunction_1" departPos="5.10" departSpeed="1.97" departDelay="24.63" arrival="258.00" arrivalLane="junctionEast_1" arrivalPos="492.80" arrivalSpeed="21.22" duration="130.00" routeLength="994.90" waitingTime="0.00" waitingCount="0" stopTime="0.00" timeLoss="85.13" rerouteNo="0" devices="tripinfo_westEastTop.21 ssm_westEastTop.21" vType="carCustom" speedFactor="0.99" vaporized=""/>
    <tripinfo id="southEast.9" depart="183.00" departLane="southJunction_0" departPos="5.10" departSpeed="16.67" departDelay="0.96" arrival="264.00" arrivalLane="junctionEast_0" arrivalPos="492.80" arrivalSpeed="21.22" duration="81.00" routeLength="989.53" waitingTime="0.00" waitingCount="0" stopTime="0.00" timeLoss="34.60" rerouteNo="0" devices="tripinfo_southEast.9 ssm_southEast.9" vType="carCustom" speedFactor="0.86" vaporized=""/>
    <tripinfo id="westEastTop.22" depart="134.00" departLane="westJunction_1" departPos="5.10" departSpeed="2.15" departDelay="29.62" arrival="265.00" arrivalLane="junctionEast_1" arrivalPos="492.80" arrivalSpeed="21.92" duration="131.00" routeLength="994.90" waitingTime="0.00" waitingCount="0" stopTime="0.00" timeLoss="86.01" rerouteNo="0" devices="tripinfo_westEastTop.22 ssm_westEastTop.22" vType="carCustom" speedFactor="0.88" vaporized=""/>
    <tripinfo id="southEast.10" depart="185.00" departLane="southJunction_0" departPos="5.10" departSpeed="15.19" departDelay="1.53" arrival="271.00" arrivalLane="junctionEast_0" arrivalPos="492.80" arrivalSpeed="21.40" duration="86.00" routeLength="989.53" waitingTime="0.00" waitingCount="0" stopTime="0.00" timeLoss="40.54" rerouteNo="0" devices="tripinfo_southEast.10 ssm_southEast.10" vType="carCustom" speedFactor="0.98" vaporized=""/>
    <tripinfo id="westEastTop.23" depart="140.00" departLane="westJunction_1" departPos="5.10" departSpeed="2.97" departDelay="34.71" arrival="272.00" arrivalLane="junctionEast_1" arrivalPos="492.80" arrivalSpeed="21.06" duration="132.00" routeLength="994.90" waitingTime="0.00" waitingCount="0" stopTime="0.00" timeLoss="87.18" rerouteNo="0" devices="tripinfo_westEastTop.23 ssm_westEastTop.23" vType="carCustom" speedFactor="0.77" vaporized=""/>