<?xml version="1.0" encoding="UTF-8"?>

<!-- generated on 2025-04-29 08:29:58 by Eclipse SUMO sumo Version 1.20.0
<configuration xmlns:xsi="http://www.w3.org/2001/XMLSchema-instance" xsi:noNamespaceSchemaLocation="http://sumo.dlr.de/xsd/sumoConfiguration.xsd">

    <input>
        <net-file value="nets/2lane_unprotected_right/2lane_unprotected_right.net.xml"/>
        <route-files value="nets/2lane_unprotected_right/2lane_unprotected_right.rou.xml"/>
    </input>

    <output>
        <tripinfo-output value="traces/transs50f1_s50_f0.5_random/0160_tripinfo.xml"/>
        <collision-output value="traces/transs50f1_s50_f0.5_random/0160_collisions.xml"/>
        <statistic-output value="traces/transs50f1_s50_f0.5_random/0160_statistics.xml"/>
    </output>

    <processing>
        <collision.action value="teleport"/>
        <collision.check-junctions value="true"/>
        <time-to-teleport value="-1"/>
        <waiting-time-memory value="1000"/>
        <max-depart-delay value="-1"/>
        <default.speeddev value="0.1"/>
    </processing>

    <report>
        <no-warnings value="true"/>
    </report>

    <ssm_device>
        <device.ssm.probability value="1.0"/>
        <device.ssm.measures value="BR"/>
        <device.ssm.file value="/Users/finn/Code/CausalKnowledgeTransfer-4-SafeRL/traces/transs50f1_s50_f0.5_random/0160_ssm.xml"/>
    </ssm_device>

    <traci_server>
        <remote-port value="64389"/>
    </traci_server>

    <random_number>
        <random value="true"/>
    </random_number>

</configuration>
-->

<tripinfos xmlns:xsi="http://www.w3.org/2001/XMLSchema-instance" xsi:noNamespaceSchemaLocation="http://sumo.dlr.de/xsd/tripinfo_file.xsd">
    <tripinfo id="westEastTop.0" depart="2.00" departLane="westJunction_1" departPos="5.10" departSpeed="22.22" departDelay="0.95" arrival="49.00" arrivalLane="junctionEast_0" arrivalPos="492.80" arrivalSpeed="21.20" duration="47.00" routeLength="994.90" waitingTime="0.00" waitingCount="0" stopTime="0.00" timeLoss="1.53" rerouteNo="0" devices="tripinfo_westEastTop.0 ssm_westEastTop.0" vType="carCustom" speedFactor="1.01" vaporized=""/>
    <tripinfo id="westEastBottom0.0" depart="3.00" departLane="westJunction_0" departPos="5.10" departSpeed="22.22" departDelay="0.10" arrival="52.00" arrivalLane="junctionEast_0" arrivalPos="492.80" arrivalSpeed="21.81" duration="49.00" routeLength="994.90" waitingTime="0.00" waitingCount="0" stopTime="0.00" timeLoss="3.33" rerouteNo="0" devices="tripinfo_westEastBottom0.0 ssm_westEastBottom0.0" vType="carCustom" speedFactor="1.01" vaporized=""/>
    <tripinfo id="westEastTop.1" depart="4.00" departLane="westJunction_1" departPos="5.10" departSpeed="22.03" departDelay="0.02" arrival="53.00" arrivalLane="junctionEast_1" arrivalPos="492.80" arrivalSpeed="21.45" duration="49.00" routeLength="994.90" waitingTime="0.00" waitingCount="0" stopTime="0.00" timeLoss="4.07" rerouteNo="0" devices="tripinfo_westEastTop.1 ssm_westEastTop.1" vType="carCustom" speedFactor="0.98" vaporized=""/>
    <tripinfo id="southEast.0" depart="1.00" departLane="southJunction_0" departPos="5.10" departSpeed="22.22" departDelay="0.40" arrival="56.00" arrivalLane="junctionEast_0" arrivalPos="492.80" arrivalSpeed="21.21" duration="55.00" routeLength="989.53" waitingTime="0.00" waitingCount="0" stopTime="0.00" timeLoss="9.01" rerouteNo="0" devices="tripinfo_southEast.0 ssm_southEast.0" vType="carCustom" speedFactor="1.07" vaporized=""/>
    <tripinfo id="westEastBottom0.1" depart="7.00" departLane="westJunction_0" departPos="5.10" departSpeed="21.25" departDelay="0.20" arrival="58.00" arrivalLane="junctionEast_1" arrivalPos="492.80" arrivalSpeed="21.23" duration="51.00" routeLength="994.90" waitingTime="0.00" waitingCount="0" stopTime="0.00" timeLoss="5.64" rerouteNo="0" devices="tripinfo_westEastBottom0.1 ssm_westEastBottom0.1" vType="carCustom" speedFactor="0.99" vaporized=""/>
    <tripinfo id="southEast.1" depart="3.00" departLane="southJunction_0" departPos="5.10" departSpeed="22.03" departDelay="0.69" arrival="60.00" arrivalLane="junctionEast_0" arrivalPos="492.80" arrivalSpeed="21.71" duration="57.00" routeLength="989.53" waitingTime="0.00" waitingCount="0" stopTime="0.00" timeLoss="11.73" rerouteNo="0" devices="tripinfo_southEast.1 ssm_southEast.1" vType="carCustom" speedFactor="1.07" vaporized=""/>
    <tripinfo id="westEastTop.2" depart="7.00" departLane="westJunction_1" departPos="5.10" departSpeed="16.50" departDelay="0.53" arrival="62.00" arrivalLane="junctionEast_1" arrivalPos="492.80" arrivalSpeed="21.84" duration="55.00" routeLength="994.90" waitingTime="0.00" waitingCount="0" stopTime="0.00" timeLoss="10.07" rerouteNo="0" devices="tripinfo_westEastTop.2 ssm_westEastTop.2" vType="carCustom" speedFactor="0.95" vaporized=""/>
    <tripinfo id="southEast.2" depart="5.00" departLane="southJunction_0" departPos="5.10" departSpeed="16.64" departDelay="1.52" arrival="65.00" arrivalLane="junctionEast_0" arrivalPos="492.80" arrivalSpeed="21.50" duration="60.00" routeLength="989.53" waitingTime="0.00" waitingCount="0" stopTime="0.00" timeLoss="14.47" rerouteNo="0" devices="tripinfo_southEast.2 ssm_southEast.2" vType="carCustom" speedFactor="0.93" vaporized=""/>
    <tripinfo id="westEastTop.3" depart="18.00" departLane="westJunction_1" departPos="5.10" departSpeed="13.02" departDelay="0.82" arrival="67.00" arrivalLane="junctionEast_1" arrivalPos="492.80" arrivalSpeed="21.80" duration="49.00" routeLength="994.90" waitingTime="0.00" waitingCount="0" stopTime="0.00" timeLoss="3.62" rerouteNo="0" devices="tripinfo_westEastTop.3 ssm_westEastTop.3" vType="carCustom" speedFactor="1.00" vaporized=""/>
    <tripinfo id="southNorth.0" depart="20.00" departLane="southJunction_1" departPos="5.10" departSpeed="22.22" departDelay="0.86" arrival="70.00" arrivalLane="junctionNorth_0" arrivalPos="492.80" arrivalSpeed="21.19" duration="50.00" routeLength="995.01" waitingTime="0.00" waitingCount="0" stopTime="0.00" timeLoss="5.13" rerouteNo="0" devices="tripinfo_southNorth.0 ssm_southNorth.0" vType="carCustom" speedFactor="1.00" vaporized=""/>
    <tripinfo id="southEast.3" depart="7.00" departLane="southJunction_0" departPos="5.10" departSpeed="13.56" departDelay="1.14" arrival="71.00" arrivalLane="junctionEast_0" arrivalPos="492.80" arrivalSpeed="21.72" duration="64.00" routeLength="989.53" waitingTime="0.00" waitingCount="0" stopTime="0.00" timeLoss="18.17" rerouteNo="0" devices="tripinfo_southEast.3 ssm_southEast.3" vType="carCustom" speedFactor="0.96" vaporized=""/>
    <tripinfo id="westEastBottom0.2" depart="19.00" departLane="westJunction_0" departPos="5.10" departSpeed="21.14" departDelay="0.82" arrival="71.00" arrivalLane="junctionEast_1" arrivalPos="492.80" arrivalSpeed="21.14" duration="52.00" routeLength="994.90" waitingTime="0.00" waitingCount="0" stopTime="0.00" timeLoss="6.92" rerouteNo="0" devices="tripinfo_westEastBottom0.2 ssm_westEastBottom0.2" vType="carCustom" speedFactor="1.11" vaporized=""/>
    <tripinfo id="westEastBottom0.3" depart="21.00" departLane="westJunction_0" departPos="5.10" departSpeed="20.06" departDelay="2.07" arrival="76.00" arrivalLane="junctionEast_0" arrivalPos="492.80" arrivalSpeed="21.40" duration="55.00" routeLength="994.90" waitingTime="0.00" waitingCount="0" stopTime="0.00" timeLoss="9.50" rerouteNo="0" devices="tripinfo_westEastBottom0.3 ssm_westEastBottom0.3" vType="carCustom" speedFactor="0.96" vaporized=""/>
    <tripinfo id="westEastBottom0.4" depart="23.00" departLane="westJunction_0" departPos="5.10" departSpeed="15.01" departDelay="3.30" arrival="79.00" arrivalLane="junctionEast_0" arrivalPos="492.80" arrivalSpeed="22.08" duration="56.00" routeLength="994.90" waitingTime="0.00" waitingCount="0" stopTime="0.00" timeLoss="10.44" rerouteNo="0" devices="tripinfo_westEastBottom0.4 ssm_westEastBottom0.4" vType="carCustom" speedFactor="0.84" vaporized=""/>
    <tripinfo id="westEastTop.4" depart="24.00" departLane="westJunction_1" departPos="5.10" departSpeed="21.15" departDelay="0.71" arrival="80.00" arrivalLane="junctionEast_1" arrivalPos="492.80" arrivalSpeed="21.21" duration="56.00" routeLength="994.90" waitingTime="0.00" waitingCount="0" stopTime="0.00" timeLoss="10.46" rerouteNo="0" devices="tripinfo_westEastTop.4 ssm_westEastTop.4" vType="carCustom" speedFactor="1.06" vaporized=""/>
    <tripinfo id="southNorth.1" depart="22.00" departLane="southJunction_1" departPos="5.10" departSpeed="22.03" departDelay="1.96" arrival="83.00" arrivalLane="junctionNorth_0" arrivalPos="492.80" arrivalSpeed="21.30" duration="61.00" routeLength="995.01" waitingTime="5.00" waitingCount="1" stopTime="0.00" timeLoss="15.04" rerouteNo="0" devices="tripinfo_southNorth.1 ssm_southNorth.1" vType="carCustom" speedFactor="1.03" vaporized=""/>
    <tripinfo id="westEastTop.5" depart="30.00" departLane="westJunction_1" departPos="5.10" departSpeed="21.14" departDelay="0.71" arrival="88.00" arrivalLane="junctionEast_0" arrivalPos="492.80" arrivalSpeed="21.89" duration="58.00" routeLength="994.90" waitingTime="0.00" waitingCount="0" stopTime="0.00" timeLoss="13.07" rerouteNo="0" devices="tripinfo_westEastTop.5 ssm_westEastTop.5" vType="carCustom" speedFactor="0.74" vaporized=""/>
    <tripinfo id="westEastTop.6" depart="32.00" departLane="westJunction_1" departPos="5.10" departSpeed="21.34" departDelay="1.80" arrival="90.00" arrivalLane="junctionEast_1" arrivalPos="492.80" arrivalSpeed="21.58" duration="58.00" routeLength="994.90" waitingTime="0.00" waitingCount="0" stopTime="0.00" timeLoss="13.19" rerouteNo="0" devices="tripinfo_westEastTop.6 ssm_westEastTop.6" vType="carCustom" speedFactor="1.04" vaporized=""/>
    <tripinfo id="westEastTop.7" depart="39.00" departLane="westJunction_1" departPos="5.10" departSpeed="18.19" departDelay="0.15" arrival="95.00" arrivalLane="junctionEast_0" arrivalPos="492.80" arrivalSpeed="20.93" duration="56.00" routeLength="994.90" waitingTime="0.00" waitingCount="0" stopTime="0.00" timeLoss="10.32" rerouteNo="0" devices="tripinfo_westEastTop.7 ssm_westEastTop.7" vType="carCustom" speedFactor="1.02" vaporized=""/>
    <tripinfo id="westEastBottom0.5" depart="45.00" departLane="westJunction_0" departPos="5.10" departSpeed="18.58" departDelay="0.22" arrival="98.00" arrivalLane="junctionEast_0" arrivalPos="492.80" arrivalSpeed="21.15" duration="53.00" routeLength="994.90" waitingTime="0.00" waitingCount="0" stopTime="0.00" timeLoss="7.99" rerouteNo="0" devices="tripinfo_westEastBottom0.5 ssm_westEastBottom0.5" vType="carCustom" speedFactor="1.10" vaporized=""/>
    <tripinfo id="westEastTop.8" depart="43.00" departLane="westJunction_1" departPos="5.10" departSpeed="21.40" departDelay="0.74" arrival="102.00" arrivalLane="junctionEast_0" arrivalPos="492.80" arrivalSpeed="21.34" duration="59.00" routeLength="994.90" waitingTime="0.00" waitingCount="0" stopTime="0.00" timeLoss="13.49" rerouteNo="0" devices="tripinfo_westEastTop.8 ssm_westEastTop.8" vType="carCustom" speedFactor="1.27" vaporized=""/>
    <tripinfo id="westEastTop.9" depart="45.00" departLane="westJunction_1" departPos="5.10" departSpeed="21.06" departDelay="1.96" arrival="105.00" arrivalLane="junctionEast_0" arrivalPos="492.80" arrivalSpeed="22.01" duration="60.00" routeLength="994.90" waitingTime="0.00" waitingCount="0" stopTime="0.00" timeLoss="15.19" rerouteNo="0" devices="tripinfo_westEastTop.9 ssm_westEastTop.9" vType="carCustom" speedFactor="1.00" vaporized=""/>
    <tripinfo id="westEastTop.10" depart="48.00" departLane="westJunction_1" departPos="5.10" departSpeed="15.39" departDelay="0.33" arrival="107.00" arrivalLane="junctionEast_1" arrivalPos="492.80" arrivalSpeed="21.60" duration="59.00" routeLength="994.90" waitingTime="0.00" waitingCount="0" stopTime="0.00" timeLoss="13.60" rerouteNo="0" devices="tripinfo_westEastTop.10 ssm_westEastTop.10" vType="carCustom" speedFactor="1.05" vaporized=""/>
    <tripinfo id="southEast.4" depart="42.00" departLane="southJunction_0" departPos="5.10" departSpeed="5.77" departDelay="0.07" arrival="109.00" arrivalLane="junctionEast_0" arrivalPos="492.80" arrivalSpeed="21.62" duration="67.00" routeLength="989.53" waitingTime="2.00" waitingCount="1" stopTime="0.00" timeLoss="20.92" rerouteNo="0" devices="tripinfo_southEast.4 ssm_southEast.4" vType="carCustom" speedFactor="1.07" vaporized=""/>
    <tripinfo id="southNorth.2" depart="33.00" departLane="southJunction_1" departPos="5.10" departSpeed="20.23" departDelay="0.02" arrival="111.00" arrivalLane="junctionNorth_0" arrivalPos="492.80" arrivalSpeed="22.21" duration="78.00" routeLength="995.01" waitingTime="20.00" waitingCount="1" stopTime="0.00" timeLoss="32.31" rerouteNo="0" devices="tripinfo_southNorth.2 ssm_southNorth.2" vType="carCustom" speedFactor="1.06" vaporized=""/>
    <tripinfo id="southEast.5" depart="45.00" departLane="southJunction_0" departPos="5.10" departSpeed="11.11" departDelay="0.13" arrival="112.00" arrivalLane="junctionEast_0" arrivalPos="492.80" arrivalSpeed="21.50" duration="67.00" routeLength="989.53" waitingTime="0.00" waitingCount="0" stopTime="0.00" timeLoss="21.19" rerouteNo="0" devices="tripinfo_southEast.5 ssm_southEast.5" vType="carCustom" speedFactor="1.00" vaporized=""/>
    <tripinfo id="westEastTop.11" depart="66.00" departLane="westJunction_1" departPos="5.10" departSpeed="16.60" departDelay="0.44" arrival="113.00" arrivalLane="junctionEast_1" arrivalPos="492.80" arrivalSpeed="20.96" duration="47.00" routeLength="994.90" waitingTime="0.00" waitingCount="0" stopTime="0.00" timeLoss="1.81" rerouteNo="0" devices="tripinfo_westEastTop.11 ssm_westEastTop.11" vType="carCustom" speedFactor="1.08" vaporized=""/>
    <tripinfo id="southEast.6" depart="58.00" departLane="southJunction_0" departPos="5.10" departSpeed="19.92" departDelay="0.60" arrival="116.00" arrivalLane="junctionEast_0" arrivalPos="492.80" arrivalSpeed="21.70" duration="58.00" routeLength="989.53" waitingTime="0.00" waitingCount="0" stopTime="0.00" timeLoss="12.39" rerouteNo="0" devices="tripinfo_southEast.6 ssm_southEast.6" vType="carCustom" speedFactor="0.98" vaporized=""/>
    <tripinfo id="southEast.7" depart="65.00" departLane="southJunction_0" departPos="5.10" departSpeed="21.74" departDelay="0.51" arrival="120.00" arrivalLane="junctionEast_0" arrivalPos="492.80" arrivalSpeed="21.82" duration="55.00" routeLength="989.53" waitingTime="0.00" waitingCount="0" stopTime="0.00" timeLoss="8.95" rerouteNo="0" devices="tripinfo_southEast.7 ssm_southEast.7" vType="carCustom" speedFactor="0.90" vaporized=""/>
    <tripinfo id="southNorth.3" depart="55.00" departLane="southJunction_1" departPos="5.10" departSpeed="12.50" departDelay="0.80" arrival="121.00" arrivalLane="junctionNorth_0" arrivalPos="492.80" arrivalSpeed="21.26" duration="66.00" routeLength="995.01" waitingTime="5.00" waitingCount="1" stopTime="0.00" timeLoss="20.65" rerouteNo="0" devices="tripinfo_southNorth.3 ssm_southNorth.3" vType="carCustom" speedFactor="0.93" vaporized=""/>
    <tripinfo id="westEastTop.12" depart="69.00" departLane="westJunction_1" departPos="5.10" departSpeed="21.23" departDelay="0.65" arrival="123.00" arrivalLane="junctionEast_1" arrivalPos="492.80" arrivalSpeed="21.07" duration="54.00" routeLength="994.90" waitingTime="0.00" waitingCount="0" stopTime="0.00" timeLoss="8.87" rerouteNo="0" devices="tripinfo_westEastTop.12 ssm_westEastTop.12" vType="carCustom" speedFactor="1.08" vaporized=""/>
    <tripinfo id="southNorth.4" depart="63.00" departLane="southJunction_1" departPos="5.10" departSpeed="21.75" departDelay="0.22" arrival="125.00" arrivalLane="junctionNorth_0" arrivalPos="492.80" arrivalSpeed="21.49" duration="62.00" routeLength="995.01" waitingTime="0.00" waitingCount="0" stopTime="0.00" timeLoss="16.91" rerouteNo="0" devices="tripinfo_southNorth.4 ssm_southNorth.4" vType="carCustom" speedFactor="1.01" vaporized=""/>
    <tripinfo id="westEastTop.13" depart="71.00" departLane="westJunction_1" departPos="5.10" departSpeed="17.90" departDelay="1.55" arrival="127.00" arrivalLane="junctionEast_0" arrivalPos="492.80" arrivalSpeed="20.92" duration="56.00" routeLength="994.90" waitingTime="0.00" waitingCount="0" stopTime="0.00" timeLoss="10.92" rerouteNo="0" devices="tripinfo_westEastTop.13 ssm_westEastTop.13" vType="carCustom" speedFactor="1.04" vaporized=""/>
    <tripinfo id="southNorth.5" depart="66.00" departLane="southJunction_1" departPos="5.10" departSpeed="21.19" departDelay="0.93" arrival="130.00" arrivalLane="junctionNorth_0" arrivalPos="492.80" arrivalSpeed="22.12" duration="64.00" routeLength="995.01" waitingTime="1.00" waitingCount="1" stopTime="0.00" timeLoss="18.95" rerouteNo="0" devices="tripinfo_southNorth.5 ssm_southNorth.5" vType="carCustom" speedFactor="0.97" vaporized=""/>
    <tripinfo id="southEast.8" depart="77.00" departLane="southJunction_0" departPos="5.10" departSpeed="22.20" departDelay="0.81" arrival="131.00" arrivalLane="junctionEast_0" arrivalPos="492.80" arrivalSpeed="21.62" duration="54.00" routeLength="989.53" waitingTime="0.00" waitingCount="0" stopTime="0.00" timeLoss="8.78" rerouteNo="0" devices="tripinfo_southEast.8 ssm_southEast.8" vType="carCustom" speedFactor="1.18" vaporized=""/>
    <tripinfo id="southNorth.6" depart="71.00" departLane="southJunction_1" departPos="5.10" departSpeed="19.62" departDelay="0.76" arrival="134.00" arrivalLane="junctionNorth_0" arrivalPos="492.80" arrivalSpeed="21.14" duration="63.00" routeLength="995.01" waitingTime="0.00" waitingCount="0" stopTime="0.00" timeLoss="18.22" rerouteNo="0" devices="tripinfo_southNorth.6 ssm_southNorth.6" vType="carCustom" speedFactor="0.73" vaporized=""/>
    <tripinfo id="westEastTop.14" depart="73.00" departLane="westJunction_1" departPos="5.10" departSpeed="13.92" departDelay="3.27" arrival="136.00" arrivalLane="junctionEast_0" arrivalPos="492.80" arrivalSpeed="21.20" duration="63.00" routeLength="994.90" waitingTime="0.00" waitingCount="0" stopTime="0.00" timeLoss="17.64" rerouteNo="0" devices="tripinfo_westEastTop.14 ssm_westEastTop.14" vType="carCustom" speedFactor="0.96" vaporized=""/>
    <tripinfo id="westEastBottom0.6" depart="85.00" departLane="westJunction_0" departPos="5.10" departSpeed="22.22" departDelay="0.71" arrival="139.00" arrivalLane="junctionEast_0" arrivalPos="492.80" arrivalSpeed="22.07" duration="54.00" routeLength="994.90" waitingTime="0.00" waitingCount="0" stopTime="0.00" timeLoss="9.08" rerouteNo="0" devices="tripinfo_westEastBottom0.6 ssm_westEastBottom0.6" vType="carCustom" speedFactor="0.94" vaporized=""/>
    <tripinfo id="westEastTop.15" depart="75.00" departLane="westJunction_1" departPos="5.10" departSpeed="11.32" departDelay="0.56" arrival="140.00" arrivalLane="junctionEast_1" arrivalPos="492.80" arrivalSpeed="21.31" duration="65.00" routeLength="994.90" waitingTime="0.00" waitingCount="0" stopTime="0.00" timeLoss="19.49" rerouteNo="0" devices="tripinfo_westEastTop.15 ssm_westEastTop.15" vType="carCustom" speedFactor="0.96" vaporized=""/>
    <tripinfo id="westEastTop.16" depart="80.00" departLane="westJunction_1" departPos="5.10" departSpeed="11.33" departDelay="0.59" arrival="144.00" arrivalLane="junctionEast_0" arrivalPos="492.80" arrivalSpeed="22.11" duration="64.00" routeLength="994.90" waitingTime="0.00" waitingCount="0" stopTime="0.00" timeLoss="18.60" rerouteNo="0" devices="tripinfo_westEastTop.16 ssm_westEastTop.16" vType="carCustom" speedFactor="1.06" vaporized=""/>
    <tripinfo id="southEast.9" depart="85.00" departLane="southJunction_0" departPos="5.10" departSpeed="21.14" departDelay="0.07" arrival="147.00" arrivalLane="junctionEast_0" arrivalPos="492.80" arrivalSpeed="21.72" duration="62.00" routeLength="989.53" waitingTime="0.00" waitingCount="0" stopTime="0.00" timeLoss="16.04" rerouteNo="0" devices="tripinfo_southEast.9 ssm_southEast.9" vType="carCustom" speedFactor="1.07" vaporized=""/>
    <tripinfo id="westEastTop.17" depart="83.00" departLane="westJunction_1" departPos="5.10" departSpeed="13.01" departDelay="0.25" arrival="148.00" arrivalLane="junctionEast_1" arrivalPos="492.80" arrivalSpeed="21.55" duration="65.00" routeLength="994.90" waitingTime="0.00" waitingCount="0" stopTime="0.00" timeLoss="19.30" rerouteNo="0" devices="tripinfo_westEastTop.17 ssm_westEastTop.17" vType="carCustom" speedFactor="1.11" vaporized=""/>
    <tripinfo id="westEastBottom0.8" depart="91.00" departLane="westJunction_0" departPos="5.10" departSpeed="15.18" departDelay="0.03" arrival="151.00" arrivalLane="junctionEast_0" arrivalPos="492.80" arrivalSpeed="21.05" duration="60.00" routeLength="994.90" waitingTime="0.00" waitingCount="0" stopTime="0.00" timeLoss="14.49" rerouteNo="0" devices="tripinfo_westEastBottom0.8 ssm_westEastBottom0.8" vType="carCustom" speedFactor="0.92" vaporized=""/>
    <tripinfo id="westEastBottom0.7" depart="89.00" departLane="westJunction_0" departPos="5.10" departSpeed="16.20" departDelay="0.38" arrival="152.00" arrivalLane="junctionEast_1" arrivalPos="492.80" arrivalSpeed="21.12" duration="63.00" routeLength="994.90" waitingTime="0.00" waitingCount="0" stopTime="0.00" timeLoss="17.46" rerouteNo="0" devices="tripinfo_westEastBottom0.7 ssm_westEastBottom0.7" vType="carCustom" speedFactor="0.92" vaporized=""/>
    <tripinfo id="southEast.10" depart="87.00" departLane="southJunction_0" departPos="5.10" departSpeed="21.91" departDelay="1.00" arrival="155.00" arrivalLane="junctionEast_0" arrivalPos="492.80" arrivalSpeed="21.81" duration="68.00" routeLength="989.53" waitingTime="4.00" waitingCount="1" stopTime="0.00" timeLoss="21.41" rerouteNo="0" devices="tripinfo_southEast.10 ssm_southEast.10" vType="carCustom" speedFactor="0.90" vaporized=""/>
    <tripinfo id="westEastTop.18" depart="85.00" departLane="westJunction_1" departPos="5.10" departSpeed="11.45" departDelay="1.48" arrival="156.00" arrivalLane="junctionEast_1" arrivalPos="492.80" arrivalSpeed="21.06" duration="71.00" routeLength="994.90" waitingTime="0.00" waitingCount="0" stopTime="0.00" timeLoss="25.60" rerouteNo="0" devices="tripinfo_westEastTop.18 ssm_westEastTop.18" vType="carCustom" speedFactor="0.96" vaporized=""/>
    <tripinfo id="westEastBottom0.9" depart="99.00" departLane="westJunction_0" departPos="5.10" departSpeed="15.20" departDelay="0.66" arrival="160.00" arrivalLane="junctionEast_1" arrivalPos="492.80" arrivalSpeed="21.11" duration="61.00" routeLength="994.90" waitingTime="0.00" waitingCount="0" stopTime="0.00" timeLoss="15.53" rerouteNo="0" devices="tripinfo_westEastBottom0.9 ssm_westEastBottom0.9" vType="carCustom" speedFactor="1.25" vaporized=""/>
    <tripinfo id="westEastTop.19" depart="87.00" departLane="westJunction_1" departPos="5.10" departSpeed="8.51" departDelay="2.42" arrival="163.00" arrivalLane="junctionEast_1" arrivalPos="492.80" arrivalSpeed="21.98" duration="76.00" routeLength="994.90" waitingTime="0.00" waitingCount="0" stopTime="0.00" timeLoss="30.96" rerouteNo="0" devices="tripinfo_westEastTop.19 ssm_westEastTop.19" vType="carCustom" speedFactor="1.08" vaporized=""/>
    <tripinfo id="westEastTop.20" depart="90.00" departLane="westJunction_1" departPos="5.10" departSpeed="8.23" departDelay="3.67" arrival="167.00" arrivalLane="junctionEast_1" arrivalPos="492.80" arrivalSpeed="22.07" duration="77.00" routeLength="994.90" waitingTime="0.00" waitingCount="0" stopTime="0.00" timeLoss="31.41" rerouteNo="0" devices="tripinfo_westEastTop.20 ssm_westEastTop.20" vType="carCustom" speedFactor="1.08" vaporized=""/>
    <tripinfo id="westEastTop.21" depart="93.00" departLane="westJunction_1" departPos="5.10" departSpeed="8.07" departDelay="6.21" arrival="169.00" arrivalLane="junctionEast_0" arrivalPos="492.80" arrivalSpeed="20.98" duration="76.00" routeLength="994.90" waitingTime="0.00" waitingCount="0" stopTime="0.00" timeLoss="30.40" rerouteNo="0" devices="tripinfo_westEastTop.21 ssm_westEastTop.21" vType="carCustom" speedFactor="1.19" vaporized=""/>
    <tripinfo id="westEastBottom0.10" depart="112.00" departLane="westJunction_0" departPos="5.10" departSpeed="18.09" departDelay="0.08" arrival="170.00" arrivalLane="junctionEast_1" arrivalPos="492.80" arrivalSpeed="21.84" duration="58.00" routeLength="994.90" waitingTime="0.00" waitingCount="0" stopTime="0.00" timeLoss="13.21" rerouteNo="0" devices="tripinfo_westEastBottom0.10 ssm_westEastBottom0.10" vType="carCustom" speedFactor="1.11" vaporized=""/>
    <tripinfo id="westEastTop.22" depart="95.00" departLane="westJunction_1" departPos="5.10" departSpeed="7.09" departDelay="7.28" arrival="174.00" arrivalLane="junctionEast_1" arrivalPos="492.80" arrivalSpeed="22.08" duration="79.00" routeLength="994.90" waitingTime="0.00" waitingCount="0" stopTime="0.00" timeLoss="33.70" rerouteNo="0" devices="tripinfo_westEastTop.22 ssm_westEastTop.22" vType="carCustom" speedFactor="0.93" vaporized=""/>
    <tripinfo id="westEastBottom0.11" depart="114.00" departLane="westJunction_0" departPos="5.10" departSpeed="18.31" departDelay="1.06" arrival="175.00" arrivalLane="junctionEast_0" arrivalPos="492.80" arrivalSpeed="21.62" duration="61.00" routeLength="994.90" waitingTime="0.00" waitingCount="0" stopTime="0.00" timeLoss="15.85" rerouteNo="0" devices="tripinfo_westEastBottom0.11 ssm_westEastBottom0.11" vType="carCustom" speedFactor="0.87" vaporized=""/>
    <tripinfo id="westEastTop.23" depart="98.00" departLane="westJunction_1" departPos="5.10" departSpeed="6.54" departDelay="8.46" arrival="178.00" arrivalLane="junctionEast_1" arrivalPos="492.80" arrivalSpeed="21.14" duration="80.00" routeLength="994.90" waitingTime="0.00" waitingCount="0" stopTime="0.00" timeLoss="34.39" rerouteNo="0" devices="tripinfo_westEastTop.23 ssm_westEastTop.23" vType="carCustom" speedFactor="0.79" vaporized=""/>
    <tripinfo id="westEastBottom0.12" depart="120.00" departLane="westJunction_0" departPos="5.10" departSpeed="14.63" departDelay="0.00" arrival="181.00" arrivalLane="junctionEast_1" arrivalPos="492.80" arrivalSpeed="21.45" duration="61.00" routeLength="994.90" waitingTime="0.00" waitingCount="0" stopTime="0.00" timeLoss="15.89" rerouteNo="0" devices="tripinfo_westEastBottom0.12 ssm_westEastBottom0.12" vType="carCustom" speedFactor="1.05" vaporized=""/>
    <tripinfo id="westEastBottom0.13" depart="122.00" departLane="westJunction_0" departPos="5.10" departSpeed="17.75" departDelay="0.92" arrival="184.00" arrivalLane="junctionEast_1" arrivalPos="492.80" arrivalSpeed="22.17" duration="62.00" routeLength="994.90" waitingTime="0.00" waitingCount="0" stopTime="0.00" timeLoss="16.94" rerouteNo="0" devices="tripinfo_westEastBottom0.13 ssm_westEastBottom0.13" vType="carCustom" speedFactor="1.10" vaporized=""/>
    <tripinfo id="westEastTop.24" depart="101.00" departLane="westJunction_1" departPos="5.10" departSpeed="6.12" departDelay="8.58" arrival="187.00" arrivalLane="junctionEast_0" arrivalPos="492.80" arrivalSpeed="21.06" duration="86.00" routeLength="994.90" waitingTime="0.00" waitingCount="0" stopTime="0.00" timeLoss="40.43" rerouteNo="0" devices="tripinfo_westEastTop.24 ssm_westEastTop.24" vType="carCustom" speedFactor="1.15" vaporized=""/>
    <tripinfo id="southEast.11" depart="112.00" departLane="southJunction_0" departPos="5.10" departSpeed="11.15" departDelay="0.65" arrival="188.00" arrivalLane="junctionEast_1" arrivalPos="492.80" arrivalSpeed="20.94" duration="76.00" routeLength="989.53" waitingTime="15.00" waitingCount="1" stopTime="0.00" timeLoss="30.40" rerouteNo="0" devices="tripinfo_southEast.11 ssm_southEast.11" vType="carCustom" speedFactor="0.97" vaporized=""/>
    <tripinfo id="southNorth.7" depart="129.00" departLane="southJunction_1" departPos="5.10" departSpeed="22.22" departDelay="0.81" arrival="188.00" arrivalLane="junctionNorth_0" arrivalPos="492.80" arrivalSpeed="21.01" duration="59.00" routeLength="995.01" waitingTime="4.00" waitingCount="1" stopTime="0.00" timeLoss="13.76" rerouteNo="0" devices="tripinfo_southNorth.7 ssm_southNorth.7" vType="carCustom" speedFactor="0.89" vaporized=""/>
    <tripinfo id="westEastTop.25" depart="121.00" departLane="westJunction_1" departPos="5.10" departSpeed="10.96" departDelay="0.83" arrival="191.00" arrivalLane="junctionEast_0" arrivalPos="492.80" arrivalSpeed="21.21" duration="70.00" routeLength="994.90" waitingTime="0.00" waitingCount="0" stopTime="0.00" timeLoss="24.44" rerouteNo="0" devices="tripinfo_westEastTop.25 ssm_westEastTop.25" vType="carCustom" speedFactor="1.02" vaporized=""/>
    <tripinfo id="southEast.12" depart="128.00" departLane="southJunction_0" departPos="5.10" departSpeed="22.02" departDelay="0.24" arrival="192.00" arrivalLane="junctionEast_1" arrivalPos="492.80" arrivalSpeed="21.51" duration="64.00" routeLength="989.53" waitingTime="0.00" waitingCount="0" stopTime="0.00" timeLoss="18.11" rerouteNo="0" devices="tripinfo_southEast.12 ssm_southEast.12" vType="carCustom" speedFactor="0.88" vaporized=""/>
    <tripinfo id="westEastTop.26" depart="123.00" departLane="westJunction_1" departPos="5.10" departSpeed="14.51" departDelay="2.49" arrival="195.00" arrivalLane="junctionEast_1" arrivalPos="492.80" arrivalSpeed="21.41" duration="72.00" routeLength="994.90" waitingTime="0.00" waitingCount="0" stopTime="0.00" timeLoss="26.54" rerouteNo="0" devices="tripinfo_westEastTop.26 ssm_westEastTop.26" vType="carCustom" speedFactor="1.05" vaporized=""/>
    <tripinfo id="westEastBottom0.14" depart="138.00" departLane="westJunction_0" departPos="5.10" departSpeed="16.00" departDelay="0.57" arrival="196.00" arrivalLane="junctionEast_0" arrivalPos="492.80" arrivalSpeed="22.08" duration="58.00" routeLength="994.90" waitingTime="0.00" waitingCount="0" stopTime="0.00" timeLoss="13.11" rerouteNo="0" devices="tripinfo_westEastBottom0.14 ssm_westEastBottom0.14" vType="carCustom" speedFactor="1.02" vaporized=""/>