<?xml version="1.0" encoding="UTF-8"?>

<!-- generated on 2025-04-29 08:30:46 by Eclipse SUMO sumo Version 1.20.0
<configuration xmlns:xsi="http://www.w3.org/2001/XMLSchema-instance" xsi:noNamespaceSchemaLocation="http://sumo.dlr.de/xsd/sumoConfiguration.xsd">

    <input>
        <net-file value="nets/2lane_unprotected_right/2lane_unprotected_right.net.xml"/>
        <route-files value="nets/2lane_unprotected_right/2lane_unprotected_right.rou.xml"/>
    </input>

    <output>
        <tripinfo-output value="traces/transs50f1_s50_f0.5_random/0161_tripinfo.xml"/>
        <collision-output value="traces/transs50f1_s50_f0.5_random/0161_collisions.xml"/>
        <statistic-output value="traces/transs50f1_s50_f0.5_random/0161_statistics.xml"/>
    </output>

    <processing>
        <collision.action value="teleport"/>
        <collision.check-junctions value="true"/>
        <time-to-teleport value="-1"/>
        <waiting-time-memory value="1000"/>
        <max-depart-delay value="-1"/>
        <default.speeddev value="0.1"/>
    </processing>

    <report>
        <no-warnings value="true"/>
    </report>

    <ssm_device>
        <device.ssm.probability value="1.0"/>
        <device.ssm.measures value="BR"/>
        <device.ssm.file value="/Users/finn/Code/CausalKnowledgeTransfer-4-SafeRL/traces/transs50f1_s50_f0.5_random/0161_ssm.xml"/>
    </ssm_device>

    <traci_server>
        <remote-port value="64401"/>
    </traci_server>

    <random_number>
        <random value="true"/>
    </random_number>

</configuration>
-->

<tripinfos xmlns:xsi="http://www.w3.org/2001/XMLSchema-instance" xsi:noNamespaceSchemaLocation="http://sumo.dlr.de/xsd/tripinfo_file.xsd">
    <tripinfo id="westEastTop.0" depart="6.00" departLane="westJunction_1" departPos="5.10" departSpeed="27.78" departDelay="0.84" arrival="43.00" arrivalLane="junctionEast_1" arrivalPos="492.80" arrivalSpeed="26.71" duration="37.00" routeLength="994.90" waitingTime="0.00" waitingCount="0" stopTime="0.00" timeLoss="0.80" rerouteNo="0" devices="tripinfo_westEastTop.0 ssm_westEastTop.0" vType="carCustom" speedFactor="0.85" vaporized=""/>
    <tripinfo id="westEastBottom0.0" depart="6.00" departLane="westJunction_0" departPos="5.10" departSpeed="27.78" departDelay="0.21" arrival="43.00" arrivalLane="junctionEast_0" arrivalPos="492.80" arrivalSpeed="26.87" duration="37.00" routeLength="994.90" waitingTime="0.00" waitingCount="0" stopTime="0.00" timeLoss="0.93" rerouteNo="0" devices="tripinfo_westEastBottom0.0 ssm_westEastBottom0.0" vType="carCustom" speedFactor="0.80" vaporized=""/>
    <tripinfo id="southNorth.0" depart="10.00" departLane="southJunction_1" departPos="5.10" departSpeed="27.78" departDelay="0.74" arrival="49.00" arrivalLane="junctionNorth_0" arrivalPos="492.80" arrivalSpeed="26.82" duration="39.00" routeLength="995.01" waitingTime="0.00" waitingCount="0" stopTime="0.00" timeLoss="2.26" rerouteNo="0" devices="tripinfo_southNorth.0 ssm_southNorth.0" vType="carCustom" speedFactor="0.99" vaporized=""/>
    <tripinfo id="southEast.0" depart="9.00" departLane="southJunction_0" departPos="5.10" departSpeed="27.78" departDelay="0.06" arrival="55.00" arrivalLane="junctionEast_0" arrivalPos="492.80" arrivalSpeed="26.79" duration="46.00" routeLength="989.53" waitingTime="0.00" waitingCount="0" stopTime="0.00" timeLoss="8.82" rerouteNo="0" devices="tripinfo_southEast.0 ssm_southEast.0" vType="carCustom" speedFactor="0.90" vaporized=""/>
    <tripinfo id="westEastTop.1" depart="11.00" departLane="westJunction_1" departPos="5.10" departSpeed="27.30" departDelay="0.04" arrival="57.00" arrivalLane="junctionEast_1" arrivalPos="492.80" arrivalSpeed="26.94" duration="46.00" routeLength="994.90" waitingTime="3.00" waitingCount="1" stopTime="0.00" timeLoss="10.14" rerouteNo="0" devices="tripinfo_westEastTop.1 ssm_westEastTop.1" vType="carCustom" speedFactor="0.94" vaporized=""/>
    <tripinfo id="westEastBottom0.1" depart="14.00" departLane="westJunction_0" departPos="5.10" departSpeed="26.55" departDelay="0.64" arrival="58.00" arrivalLane="junctionEast_0" arrivalPos="492.80" arrivalSpeed="27.39" duration="44.00" routeLength="994.90" waitingTime="0.00" waitingCount="0" stopTime="0.00" timeLoss="7.94" rerouteNo="0" devices="tripinfo_westEastBottom0.1 ssm_westEastBottom0.1" vType="carCustom" speedFactor="1.16" vaporized=""/>
    <tripinfo id="westEastTop.2" depart="13.00" departLane="westJunction_1" departPos="5.10" departSpeed="27.22" departDelay="1.62" arrival="61.00" arrivalLane="junctionEast_1" arrivalPos="492.80" arrivalSpeed="27.01" duration="48.00" routeLength="994.90" waitingTime="0.00" waitingCount="0" stopTime="0.00" timeLoss="11.72" rerouteNo="0" devices="tripinfo_westEastTop.2 ssm_westEastTop.2" vType="carCustom" speedFactor="0.93" vaporized=""/>
    <tripinfo id="westEastBottom0.2" depart="16.00" departLane="westJunction_0" departPos="5.10" departSpeed="25.25" departDelay="0.46" arrival="62.00" arrivalLane="junctionEast_0" arrivalPos="492.80" arrivalSpeed="26.60" duration="46.00" routeLength="994.90" waitingTime="0.00" waitingCount="0" stopTime="0.00" timeLoss="9.85" rerouteNo="0" devices="tripinfo_westEastBottom0.2 ssm_westEastBottom0.2" vType="carCustom" speedFactor="1.06" vaporized=""/>
    <tripinfo id="westEastTop.3" depart="15.00" departLane="westJunction_1" departPos="5.10" departSpeed="21.81" departDelay="3.14" arrival="65.00" arrivalLane="junctionEast_1" arrivalPos="492.80" arrivalSpeed="27.55" duration="50.00" routeLength="994.90" waitingTime="0.00" waitingCount="0" stopTime="0.00" timeLoss="13.21" rerouteNo="0" devices="tripinfo_westEastTop.3 ssm_westEastTop.3" vType="carCustom" speedFactor="0.88" vaporized=""/>
    <tripinfo id="westEastTop.4" depart="19.00" departLane="westJunction_1" departPos="5.10" departSpeed="20.57" departDelay="0.00" arrival="68.00" arrivalLane="junctionEast_1" arrivalPos="492.80" arrivalSpeed="26.86" duration="49.00" routeLength="994.90" waitingTime="0.00" waitingCount="0" stopTime="0.00" timeLoss="12.69" rerouteNo="0" devices="tripinfo_westEastTop.4 ssm_westEastTop.4" vType="carCustom" speedFactor="0.94" vaporized=""/>
    <tripinfo id="southEast.5" depart="38.00" departLane="southJunction_0" departPos="5.10" departSpeed="25.72" departDelay="0.85" arrival="68.00" arrivalLane="junctionEast_0" arrivalPos="492.80" arrivalSpeed="5.67" duration="30.00" routeLength="989.53" waitingTime="0.00" waitingCount="0" stopTime="0.00" timeLoss="11.46" rerouteNo="0" devices="tripinfo_southEast.5 ssm_southEast.5" vType="carCustom" speedFactor="0.89" vaporized="teleport"/>
    <tripinfo id="westEastBottom0.3" depart="24.00" departLane="westJunction_0" departPos="5.10" departSpeed="22.43" departDelay="0.84" arrival="71.00" arrivalLane="junctionEast_1" arrivalPos="492.80" arrivalSpeed="27.09" duration="47.00" routeLength="994.90" waitingTime="0.00" waitingCount="0" stopTime="0.00" timeLoss="11.11" rerouteNo="0" devices="tripinfo_westEastBottom0.3 ssm_westEastBottom0.3" vType="carCustom" speedFactor="1.10" vaporized=""/>
    <tripinfo id="westEastTop.5" depart="29.00" departLane="westJunction_1" departPos="5.10" departSpeed="23.47" departDelay="0.57" arrival="75.00" arrivalLane="junctionEast_1" arrivalPos="492.80" arrivalSpeed="27.18" duration="46.00" routeLength="994.90" waitingTime="0.00" waitingCount="0" stopTime="0.00" timeLoss="9.53" rerouteNo="0" devices="tripinfo_westEastTop.5 ssm_westEastTop.5" vType="carCustom" speedFactor="0.96" vaporized=""/>
    <tripinfo id="southEast.1" depart="11.00" departLane="southJunction_0" departPos="5.10" departSpeed="27.27" departDelay="1.48" arrival="76.00" arrivalLane="junctionEast_0" arrivalPos="492.80" arrivalSpeed="26.78" duration="65.00" routeLength="989.53" waitingTime="13.00" waitingCount="1" stopTime="0.00" timeLoss="28.22" rerouteNo="0" devices="tripinfo_southEast.1 ssm_southEast.1" vType="carCustom" speedFactor="1.00" vaporized=""/>
    <tripinfo id="westEastBottom0.4" depart="32.00" departLane="westJunction_0" departPos="5.10" departSpeed="21.32" departDelay="0.84" arrival="78.00" arrivalLane="junctionEast_1" arrivalPos="492.80" arrivalSpeed="26.58" duration="46.00" routeLength="994.90" waitingTime="0.00" waitingCount="0" stopTime="0.00" timeLoss="9.98" rerouteNo="0" devices="tripinfo_westEastBottom0.4 ssm_westEastBottom0.4" vType="carCustom" speedFactor="1.14" vaporized=""/>
    <tripinfo id="southEast.2" depart="18.00" departLane="southJunction_0" departPos="5.10" departSpeed="24.53" departDelay="0.01" arrival="80.00" arrivalLane="junctionEast_0" arrivalPos="492.80" arrivalSpeed="26.92" duration="62.00" routeLength="989.53" waitingTime="7.00" waitingCount="1" stopTime="0.00" timeLoss="24.20" rerouteNo="0" devices="tripinfo_southEast.2 ssm_southEast.2" vType="carCustom" speedFactor="1.09" vaporized=""/>
    <tripinfo id="westEastTop.6" depart="32.00" departLane="westJunction_1" departPos="5.10" departSpeed="25.91" departDelay="0.84" arrival="82.00" arrivalLane="junctionEast_1" arrivalPos="492.80" arrivalSpeed="26.55" duration="50.00" routeLength="994.90" waitingTime="0.00" waitingCount="0" stopTime="0.00" timeLoss="13.36" rerouteNo="0" devices="tripinfo_westEastTop.6 ssm_westEastTop.6" vType="carCustom" speedFactor="1.00" vaporized=""/>
    <tripinfo id="southEast.3" depart="28.00" departLane="southJunction_0" departPos="5.10" departSpeed="26.51" departDelay="0.45" arrival="84.00" arrivalLane="junctionEast_0" arrivalPos="492.80" arrivalSpeed="26.58" duration="56.00" routeLength="989.53" waitingTime="1.00" waitingCount="1" stopTime="0.00" timeLoss="19.34" rerouteNo="0" devices="tripinfo_southEast.3 ssm_southEast.3" vType="carCustom" speedFactor="1.10" vaporized=""/>
    <tripinfo id="southNorth.1" depart="35.00" departLane="southJunction_1" departPos="5.10" departSpeed="27.78" departDelay="0.89" arrival="85.00" arrivalLane="junctionNorth_0" arrivalPos="492.80" arrivalSpeed="27.33" duration="50.00" routeLength="995.01" waitingTime="2.00" waitingCount="1" stopTime="0.00" timeLoss="13.51" rerouteNo="0" devices="tripinfo_southNorth.1 ssm_southNorth.1" vType="carCustom" speedFactor="1.03" vaporized=""/>
    <tripinfo id="southEast.4" depart="31.00" departLane="southJunction_0" departPos="5.10" departSpeed="27.30" departDelay="0.41" arrival="88.00" arrivalLane="junctionEast_0" arrivalPos="492.80" arrivalSpeed="26.57" duration="57.00" routeLength="989.53" waitingTime="0.00" waitingCount="0" stopTime="0.00" timeLoss="19.71" rerouteNo="0" devices="tripinfo_southEast.4 ssm_southEast.4" vType="carCustom" speedFactor="0.90" vaporized=""/>
    <tripinfo id="westEastBottom0.5" depart="34.00" departLane="westJunction_0" departPos="5.10" departSpeed="25.40" departDelay="1.49" arrival="88.00" arrivalLane="junctionEast_1" arrivalPos="492.80" arrivalSpeed="26.72" duration="54.00" routeLength="994.90" waitingTime="0.00" waitingCount="0" stopTime="0.00" timeLoss="18.05" rerouteNo="0" devices="tripinfo_westEastBottom0.5 ssm_westEastBottom0.5" vType="carCustom" speedFactor="1.02" vaporized=""/>
    <tripinfo id="westEastBottom0.6" depart="38.00" departLane="westJunction_0" departPos="5.10" departSpeed="23.68" departDelay="0.86" arrival="91.00" arrivalLane="junctionEast_0" arrivalPos="492.80" arrivalSpeed="26.57" duration="53.00" routeLength="994.90" waitingTime="0.00" waitingCount="0" stopTime="0.00" timeLoss="17.18" rerouteNo="0" devices="tripinfo_westEastBottom0.6 ssm_westEastBottom0.6" vType="carCustom" speedFactor="1.08" vaporized=""/>
    <tripinfo id="westEastTop.7" depart="36.00" departLane="westJunction_1" departPos="5.10" departSpeed="23.61" departDelay="0.52" arrival="92.00" arrivalLane="junctionEast_1" arrivalPos="492.80" arrivalSpeed="26.77" duration="56.00" routeLength="994.90" waitingTime="0.00" waitingCount="0" stopTime="0.00" timeLoss="19.64" rerouteNo="0" devices="tripinfo_westEastTop.7 ssm_westEastTop.7" vType="carCustom" speedFactor="0.87" vaporized=""/>
    <tripinfo id="southNorth.2" depart="43.00" departLane="southJunction_1" departPos="5.10" departSpeed="27.34" departDelay="0.30" arrival="94.00" arrivalLane="junctionNorth_0" arrivalPos="492.80" arrivalSpeed="26.79" duration="51.00" routeLength="995.01" waitingTime="2.00" waitingCount="1" stopTime="0.00" timeLoss="15.08" rerouteNo="0" devices="tripinfo_southNorth.2 ssm_southNorth.2" vType="carCustom" speedFactor="0.95" vaporized=""/>
    <tripinfo id="southEast.6" depart="40.00" departLane="southJunction_0" departPos="5.10" departSpeed="26.81" departDelay="0.88" arrival="96.00" arrivalLane="junctionEast_0" arrivalPos="492.80" arrivalSpeed="27.53" duration="56.00" routeLength="989.53" waitingTime="0.00" waitingCount="0" stopTime="0.00" timeLoss="18.15" rerouteNo="0" devices="tripinfo_southEast.6 ssm_southEast.6" vType="carCustom" speedFactor="0.96" vaporized=""/>
    <tripinfo id="westEastTop.8" depart="38.00" departLane="westJunction_1" departPos="5.10" departSpeed="23.16" departDelay="0.78" arrival="99.00" arrivalLane="junctionEast_1" arrivalPos="492.80" arrivalSpeed="27.25" duration="61.00" routeLength="994.90" waitingTime="1.00" waitingCount="1" stopTime="0.00" timeLoss="24.66" rerouteNo="0" devices="tripinfo_westEastTop.8 ssm_westEastTop.8" vType="carCustom" speedFactor="1.10" vaporized=""/>
    <tripinfo id="southEast.7" depart="50.00" departLane="southJunction_0" departPos="5.10" departSpeed="22.85" departDelay="0.29" arrival="99.00" arrivalLane="junctionEast_0" arrivalPos="492.80" arrivalSpeed="26.56" duration="49.00" routeLength="989.53" waitingTime="0.00" waitingCount="0" stopTime="0.00" timeLoss="12.49" rerouteNo="0" devices="tripinfo_southEast.7 ssm_southEast.7" vType="carCustom" speedFactor="1.08" vaporized=""/>
    <tripinfo id="westEastBottom0.7" depart="43.00" departLane="westJunction_0" departPos="5.10" departSpeed="16.43" departDelay="0.51" arrival="103.00" arrivalLane="junctionEast_1" arrivalPos="492.80" arrivalSpeed="26.84" duration="60.00" routeLength="994.90" waitingTime="0.00" waitingCount="0" stopTime="0.00" timeLoss="23.41" rerouteNo="0" devices="tripinfo_westEastBottom0.7 ssm_westEastBottom0.7" vType="carCustom" speedFactor="1.09" vaporized=""/>
    <tripinfo id="southEast.8" depart="54.00" departLane="southJunction_0" departPos="5.10" departSpeed="26.60" departDelay="0.73" arrival="103.00" arrivalLane="junctionEast_0" arrivalPos="492.80" arrivalSpeed="26.96" duration="49.00" routeLength="989.53" waitingTime="0.00" waitingCount="0" stopTime="0.00" timeLoss="12.35" rerouteNo="0" devices="tripinfo_southEast.8 ssm_southEast.8" vType="carCustom" speedFactor="1.11" vaporized=""/>
    <tripinfo id="westEastTop.9" depart="43.00" departLane="westJunction_1" departPos="5.10" departSpeed="14.26" departDelay="0.42" arrival="106.00" arrivalLane="junctionEast_1" arrivalPos="492.80" arrivalSpeed="26.97" duration="63.00" routeLength="994.90" waitingTime="0.00" waitingCount="0" stopTime="0.00" timeLoss="26.85" rerouteNo="0" devices="tripinfo_westEastTop.9 ssm_westEastTop.9" vType="carCustom" speedFactor="0.87" vaporized=""/>
    <tripinfo id="westEastTop.10" depart="50.00" departLane="westJunction_1" departPos="5.10" departSpeed="17.17" departDelay="0.28" arrival="109.00" arrivalLane="junctionEast_1" arrivalPos="492.80" arrivalSpeed="27.65" duration="59.00" routeLength="994.90" waitingTime="0.00" waitingCount="0" stopTime="0.00" timeLoss="23.13" rerouteNo="0" devices="tripinfo_westEastTop.10 ssm_westEastTop.10" vType="carCustom" speedFactor="1.13" vaporized=""/>
    <tripinfo id="southEast.9" depart="56.00" departLane="southJunction_0" departPos="5.10" departSpeed="26.23" departDelay="0.80" arrival="110.00" arrivalLane="junctionEast_0" arrivalPos="492.80" arrivalSpeed="27.77" duration="54.00" routeLength="989.53" waitingTime="0.00" waitingCount="0" stopTime="0.00" timeLoss="16.34" rerouteNo="0" devices="tripinfo_southEast.9 ssm_southEast.9" vType="carCustom" speedFactor="0.88" vaporized=""/>
    <tripinfo id="westEastBottom0.8" depart="58.00" departLane="westJunction_0" departPos="5.10" departSpeed="19.38" departDelay="0.99" arrival="113.00" arrivalLane="junctionEast_1" arrivalPos="492.80" arrivalSpeed="27.34" duration="55.00" routeLength="994.90" waitingTime="0.00" waitingCount="0" stopTime="0.00" timeLoss="18.45" rerouteNo="0" devices="tripinfo_westEastBottom0.8 ssm_westEastBottom0.8" vType="carCustom" speedFactor="1.02" vaporized=""/>
    <tripinfo id="westEastBottom0.9" depart="60.00" departLane="westJunction_0" departPos="5.10" departSpeed="23.16" departDelay="2.84" arrival="116.00" arrivalLane="junctionEast_1" arrivalPos="492.80" arrivalSpeed="27.28" duration="56.00" routeLength="994.90" waitingTime="0.00" waitingCount="0" stopTime="0.00" timeLoss="19.70" rerouteNo="0" devices="tripinfo_westEastBottom0.9 ssm_westEastBottom0.9" vType="carCustom" speedFactor="0.97" vaporized=""/>
    <tripinfo id="westEastBottom0.10" depart="65.00" departLane="westJunction_0" departPos="5.10" departSpeed="26.41" departDelay="0.47" arrival="119.00" arrivalLane="junctionEast_1" arrivalPos="492.80" arrivalSpeed="27.20" duration="54.00" routeLength="994.90" waitingTime="0.00" waitingCount="0" stopTime="0.00" timeLoss="17.94" rerouteNo="0" devices="tripinfo_westEastBottom0.10 ssm_westEastBottom0.10" vType="carCustom" speedFactor="0.98" vaporized=""/>
    <tripinfo id="southNorth.3" depart="66.00" departLane="southJunction_1" departPos="5.10" departSpeed="3.16" departDelay="0.24" arrival="120.00" arrivalLane="junctionNorth_0" arrivalPos="492.80" arrivalSpeed="26.81" duration="54.00" routeLength="995.01" waitingTime="0.00" waitingCount="0" stopTime="0.00" timeLoss="17.54" rerouteNo="0" devices="tripinfo_southNorth.3 ssm_southNorth.3" vType="carCustom" speedFactor="0.81" vaporized=""/>
    <tripinfo id="westEastTop.11" depart="71.00" departLane="westJunction_1" departPos="5.10" departSpeed="17.89" departDelay="0.24" arrival="125.00" arrivalLane="junctionEast_0" arrivalPos="492.80" arrivalSpeed="26.65" duration="54.00" routeLength="994.90" waitingTime="1.00" waitingCount="1" stopTime="0.00" timeLoss="17.56" rerouteNo="0" devices="tripinfo_westEastTop.11 ssm_westEastTop.11" vType="carCustom" speedFactor="0.92" vaporized=""/>
    <tripinfo id="westEastTop.12" depart="73.00" departLane="westJunction_1" departPos="5.10" departSpeed="22.63" departDelay="0.98" arrival="128.00" arrivalLane="junctionEast_1" arrivalPos="492.80" arrivalSpeed="27.00" duration="55.00" routeLength="994.90" waitingTime="0.00" waitingCount="0" stopTime="0.00" timeLoss="18.29" rerouteNo="0" devices="tripinfo_westEastTop.12 ssm_westEastTop.12" vType="carCustom" speedFactor="1.00" vaporized=""/>
    <tripinfo id="southNorth.4" depart="69.00" departLane="southJunction_1" departPos="5.10" departSpeed="9.22" departDelay="1.07" arrival="130.00" arrivalLane="junctionNorth_0" arrivalPos="492.80" arrivalSpeed="27.70" duration="61.00" routeLength="995.01" waitingTime="4.00" waitingCount="1" stopTime="0.00" timeLoss="24.89" rerouteNo="0" devices="tripinfo_southNorth.4 ssm_southNorth.4" vType="carCustom" speedFactor="0.96" vaporized=""/>
    <tripinfo id="westEastTop.13" depart="86.00" departLane="westJunction_1" departPos="5.10" departSpeed="19.59" departDelay="0.60" arrival="132.00" arrivalLane="junctionEast_1" arrivalPos="492.80" arrivalSpeed="27.40" duration="46.00" routeLength="994.90" waitingTime="0.00" waitingCount="0" stopTime="0.00" timeLoss="9.97" rerouteNo="0" devices="tripinfo_westEastTop.13 ssm_westEastTop.13" vType="carCustom" speedFactor="0.92" vaporized=""/>
    <tripinfo id="southEast.10" depart="83.00" departLane="southJunction_0" departPos="5.10" departSpeed="5.73" departDelay="0.33" arrival="134.00" arrivalLane="junctionEast_0" arrivalPos="492.80" arrivalSpeed="27.35" duration="51.00" routeLength="989.53" waitingTime="0.00" waitingCount="0" stopTime="0.00" timeLoss="13.88" rerouteNo="0" devices="tripinfo_southEast.10 ssm_southEast.10" vType="carCustom" speedFactor="1.03" vaporized=""/>
    <tripinfo id="westEastBottom0.11" depart="89.00" departLane="westJunction_0" departPos="5.10" departSpeed="27.78" departDelay="0.77" arrival="136.00" arrivalLane="junctionEast_1" arrivalPos="492.80" arrivalSpeed="26.91" duration="47.00" routeLength="994.90" waitingTime="0.00" waitingCount="0" stopTime="0.00" timeLoss="10.56" rerouteNo="0" devices="tripinfo_westEastBottom0.11 ssm_westEastBottom0.11" vType="carCustom" speedFactor="0.93" vaporized=""/>
    <tripinfo id="southNorth.5" depart="74.00" departLane="southJunction_1" departPos="5.10" departSpeed="14.44" departDelay="0.09" arrival="140.00" arrivalLane="junctionNorth_0" arrivalPos="492.80" arrivalSpeed="26.97" duration="66.00" routeLength="995.01" waitingTime="6.00" waitingCount="2" stopTime="0.00" timeLoss="29.43" rerouteNo="0" devices="tripinfo_southNorth.5 ssm_southNorth.5" vType="carCustom" speedFactor="1.10" vaporized=""/>
    <tripinfo id="southNorth.6" depart="81.00" departLane="southJunction_1" departPos="5.10" departSpeed="20.56" departDelay="0.54" arrival="143.00" arrivalLane="junctionNorth_0" arrivalPos="492.80" arrivalSpeed="26.65" duration="62.00" routeLength="995.01" waitingTime="4.00" waitingCount="1" stopTime="0.00" timeLoss="25.98" rerouteNo="0" devices="tripinfo_southNorth.6 ssm_southNorth.6" vType="carCustom" speedFactor="0.97" vaporized=""/>
    <tripinfo id="southEast.11" depart="100.00" departLane="southJunction_0" departPos="5.10" departSpeed="22.34" departDelay="0.25" arrival="146.00" arrivalLane="junctionEast_0" arrivalPos="492.80" arrivalSpeed="27.65" duration="46.00" routeLength="989.53" waitingTime="0.00" waitingCount="0" stopTime="0.00" timeLoss="9.44" rerouteNo="0" devices="tripinfo_southEast.11 ssm_southEast.11" vType="carCustom" speedFactor="1.16" vaporized=""/>
    <tripinfo id="southNorth.7" depart="93.00" departLane="southJunction_1" departPos="5.10" departSpeed="22.52" departDelay="0.53" arrival="147.00" arrivalLane="junctionNorth_0" arrivalPos="492.80" arrivalSpeed="26.60" duration="54.00" routeLength="995.01" waitingTime="0.00" waitingCount="0" stopTime="0.00" timeLoss="17.38" rerouteNo="0" devices="tripinfo_southNorth.7 ssm_southNorth.7" vType="carCustom" speedFactor="1.07" vaporized=""/>
    <tripinfo id="westEastBottom0.12" depart="93.00" departLane="westJunction_0" departPos="5.10" departSpeed="26.64" departDelay="0.18" arrival="149.00" arrivalLane="junctionEast_1" arrivalPos="492.80" arrivalSpeed="27.06" duration="56.00" routeLength="994.90" waitingTime="5.00" waitingCount="1" stopTime="0.00" timeLoss="19.28" rerouteNo="0" devices="tripinfo_westEastBottom0.12 ssm_westEastBottom0.12" vType="carCustom" speedFactor="0.79" vaporized=""/>
    <tripinfo id="westEastBottom0.13" depart="105.00" departLane="westJunction_0" departPos="5.10" departSpeed="27.78" departDelay="0.99" arrival="152.00" arrivalLane="junctionEast_1" arrivalPos="492.80" arrivalSpeed="26.60" duration="47.00" routeLength="994.90" waitingTime="0.00" waitingCount="0" stopTime="0.00" timeLoss="10.95" rerouteNo="0" devices="tripinfo_westEastBottom0.13 ssm_westEastBottom0.13" vType="carCustom" speedFactor="1.17" vaporized=""/>
    <tripinfo id="westEastBottom0.14" depart="107.00" departLane="westJunction_0" departPos="5.10" departSpeed="27.46" departDelay="2.64" arrival="153.00" arrivalLane="junctionEast_0" arrivalPos="492.80" arrivalSpeed="27.37" duration="46.00" routeLength="994.90" waitingTime="0.00" waitingCount="0" stopTime="0.00" timeLoss="9.55" rerouteNo="0" devices="tripinfo_westEastBottom0.14 ssm_westEastBottom0.14" vType="carCustom" speedFactor="1.04" vaporized=""/>
    <tripinfo id="westEastTop.14" depart="107.00" departLane="westJunction_1" departPos="5.10" departSpeed="20.35" departDelay="0.89" arrival="156.00" arrivalLane="junctionEast_1" arrivalPos="492.80" arrivalSpeed="27.61" duration="49.00" routeLength="994.90" waitingTime="0.00" waitingCount="0" stopTime="0.00" timeLoss="12.32" rerouteNo="0" devices="tripinfo_westEastTop.14 ssm_westEastTop.14" vType="carCustom" speedFactor="1.04" vaporized=""/>
    <tripinfo id="westEastBottom0.15" depart="109.00" departLane="westJunction_0" departPos="5.10" departSpeed="22.39" departDelay="1.06" arrival="157.00" arrivalLane="junctionEast_0" arrivalPos="492.80" arrivalSpeed="26.83" duration="48.00" routeLength="994.90" waitingTime="0.00" waitingCount="0" stopTime="0.00" timeLoss="11.50" rerouteNo="0" devices="tripinfo_westEastBottom0.15 ssm_westEastBottom0.15" vType="carCustom" speedFactor="0.93" vaporized=""/>
    <tripinfo id="westEastTop.15" depart="109.00" departLane="westJunction_1" departPos="5.10" departSpeed="24.03" departDelay="2.46" arrival="159.00" arrivalLane="junctionEast_1" arrivalPos="492.80" arrivalSpeed="26.70" duration="50.00" routeLength="994.90" waitingTime="0.00" waitingCount="0" stopTime="0.00" timeLoss="13.76" rerouteNo="0" devices="tripinfo_westEastTop.15 ssm_westEastTop.15" vType="carCustom" speedFactor="1.09" vaporized=""/>
    <tripinfo id="southEast.12" depart="111.00" departLane="southJunction_0" departPos="5.10" departSpeed="26.69" departDelay="0.60" arrival="161.00" arrivalLane="junctionEast_0" arrivalPos="492.80" arrivalSpeed="27.27" duration="50.00" routeLength="989.53" waitingTime="1.00" waitingCount="1" stopTime="0.00" timeLoss="12.76" rerouteNo="0" devices="tripinfo_southEast.12 ssm_southEast.12" vType="carCustom" speedFactor="1.09" vaporized=""/>
    <tripinfo id="westEastTop.16" depart="111.00" departLane="westJunction_1" departPos="5.10" departSpeed="21.17" departDelay="3.21" arrival="162.00" arrivalLane="junctionEast_1" arrivalPos="492.80" arrivalSpeed="27.72" duration="51.00" routeLength="994.90" waitingTime="0.00" waitingCount="0" stopTime="0.00" timeLoss="15.04" rerouteNo="0" devices="tripinfo_westEastTop.16 ssm_westEastTop.16" vType="carCustom" speedFactor="1.00" vaporized=""/>
    <tripinfo id="southEast.13" depart="115.00" departLane="southJunction_0" departPos="5.10" departSpeed="26.89" departDelay="0.05" arrival="166.00" arrivalLane="junctionEast_0" arrivalPos="492.80" arrivalSpeed="27.40" duration="51.00" routeLength="989.53" waitingTime="0.00" waitingCount="0" stopTime="0.00" timeLoss="13.42" rerouteNo="0" devices="tripinfo_southEast.13 ssm_southEast.13" vType="carCustom" speedFactor="1.02" vaporized=""/>
    <tripinfo id="westEastTop.17" depart="117.00" departLane="westJunction_1" departPos="5.10" departSpeed="19.34" departDelay="0.65" arrival="166.00" arrivalLane="junctionEast_1" arrivalPos="492.80" arrivalSpeed="26.63" duration="49.00" routeLength="994.90" waitingTime="0.00" waitingCount="0" stopTime="0.00" timeLoss="12.40" rerouteNo="0" devices="tripinfo_westEastTop.17 ssm_westEastTop.17" vType="carCustom" speedFactor="0.89" vaporized=""/>
    <tripinfo id="southNorth.8" depart="116.00" departLane="southJunction_1" departPos="5.10" departSpeed="2.76" departDelay="0.44" arrival="168.00" arrivalLane="junctionNorth_0" arrivalPos="492.80" arrivalSpeed="27.72" duration="52.00" routeLength="995.01" waitingTime="0.00" waitingCount="0" stopTime="0.00" timeLoss="15.36" rerouteNo="0" devices="tripinfo_southNorth.8 ssm_southNorth.8" vType="carCustom" speedFactor="1.06" vaporized=""/>
    <tripinfo id="westEastBottom0.16" depart="118.00" departLane="westJunction_0" departPos="5.10" departSpeed="21.45" departDelay="0.06" arrival="169.00" arrivalLane="junctionEast_0" arrivalPos="492.80" arrivalSpeed="26.50" duration="51.00" routeLength="994.90" waitingTime="0.00" waitingCount="0" stopTime="0.00" timeLoss="14.82" rerouteNo="0" devices="tripinfo_westEastBottom0.16 ssm_westEastBottom0.16" vType="carCustom" speedFactor="0.95" vaporized=""/>
    <tripinfo id="southEast.14" depart="119.00" departLane="southJunction_0" departPos="5.10" departSpeed="27.10" departDelay="0.28" arrival="170.00" arrivalLane="junctionEast_1" arrivalPos="492.80" arrivalSpeed="26.98" duration="51.00" routeLength="989.53" waitingTime="0.00" waitingCount="0" stopTime="0.00" timeLoss="13.47" rerouteNo="0" devices="tripinfo_southEast.14 ssm_southEast.14" vType="carCustom" speedFactor="0.99" vaporized=""/>
    <tripinfo id="southNorth.9" depart="119.00" departLane="southJunction_1" departPos="5.10" departSpeed="8.32" departDelay="0.12" arrival="171.00" arrivalLane="junctionNorth_0" arrivalPos="492.80" arrivalSpeed="26.60" duration="52.00" routeLength="995.01" waitingTime="0.00" waitingCount="0" stopTime="0.00" timeLoss="16.01" rerouteNo="0" devices="tripinfo_southNorth.9 ssm_southNorth.9" vType="carCustom" speedFactor="1.07" vaporized=""/>
    <tripinfo id="westEastBottom0.17" depart="121.00" departLane="westJunction_0" departPos="5.10" departSpeed="24.85" departDelay="0.76" arrival="173.00" arrivalLane="junctionEast_1" arrivalPos="492.80" arrivalSpeed="26.88" duration="52.00" routeLength="994.90" waitingTime="0.00" waitingCount="0" stopTime="0.00" timeLoss="15.88" rerouteNo="0" devices="tripinfo_westEastBottom0.17 ssm_westEastBottom0.17" vType="carCustom" speedFactor="0.93" vaporized=""/>
    <tripinfo id="westEastTop.18" depart="119.00" departLane="westJunction_1" departPos="5.10" departSpeed="23.13" departDelay="1.28" arrival="177.00" arrivalLane="junctionEast_1" arrivalPos="492.80" arrivalSpeed="27.76" duration="58.00" routeLength="994.90" waitingTime="0.00" waitingCount="0" stopTime="0.00" timeLoss="21.32" rerouteNo="0" devices="tripinfo_westEastTop.18 ssm_westEastTop.18" vType="carCustom" speedFactor="1.13" vaporized=""/>
    <tripinfo id="westEastTop.19" depart="129.00" departLane="westJunction_1" departPos="5.10" departSpeed="20.13" departDelay="0.99" arrival="180.00" arrivalLane="junctionEast_1" arrivalPos="492.80" arrivalSpeed="26.85" duration="51.00" routeLength="994.90" waitingTime="0.00" waitingCount="0" stopTime="0.00" timeLoss="14.76" rerouteNo="0" devices="tripinfo_westEastTop.19 ssm_westEastTop.19" vType="carCustom" speedFactor="0.82" vaporized=""/>