<?xml version="1.0" encoding="UTF-8"?>

<!-- generated on 2025-04-29 08:37:37 by Eclipse SUMO sumo Version 1.20.0
<configuration xmlns:xsi="http://www.w3.org/2001/XMLSchema-instance" xsi:noNamespaceSchemaLocation="http://sumo.dlr.de/xsd/sumoConfiguration.xsd">

    <input>
        <net-file value="nets/2lane_unprotected_right/2lane_unprotected_right.net.xml"/>
        <route-files value="nets/2lane_unprotected_right/2lane_unprotected_right.rou.xml"/>
    </input>

    <output>
        <tripinfo-output value="traces/transs50f1_s50_f0.5_random/0169_tripinfo.xml"/>
        <collision-output value="traces/transs50f1_s50_f0.5_random/0169_collisions.xml"/>
        <statistic-output value="traces/transs50f1_s50_f0.5_random/0169_statistics.xml"/>
    </output>

    <processing>
        <collision.action value="teleport"/>
        <collision.check-junctions value="true"/>
        <time-to-teleport value="-1"/>
        <waiting-time-memory value="1000"/>
        <max-depart-delay value="-1"/>
        <default.speeddev value="0.1"/>
    </processing>

    <report>
        <no-warnings value="true"/>
    </report>

    <ssm_device>
        <device.ssm.probability value="1.0"/>
        <device.ssm.measures value="BR"/>
        <device.ssm.file value="/Users/finn/Code/CausalKnowledgeTransfer-4-SafeRL/traces/transs50f1_s50_f0.5_random/0169_ssm.xml"/>
    </ssm_device>

    <traci_server>
        <remote-port value="64497"/>
    </traci_server>

    <random_number>
        <random value="true"/>
    </random_number>

</configuration>
-->

<tripinfos xmlns:xsi="http://www.w3.org/2001/XMLSchema-instance" xsi:noNamespaceSchemaLocation="http://sumo.dlr.de/xsd/tripinfo_file.xsd">
    <tripinfo id="westEastTop.0" depart="2.00" departLane="westJunction_1" departPos="5.10" departSpeed="22.22" departDelay="0.61" arrival="48.00" arrivalLane="junctionEast_1" arrivalPos="492.80" arrivalSpeed="22.16" duration="46.00" routeLength="994.90" waitingTime="0.00" waitingCount="0" stopTime="0.00" timeLoss="1.05" rerouteNo="0" devices="tripinfo_westEastTop.0 ssm_westEastTop.0" vType="carCustom" speedFactor="0.83" vaporized=""/>
    <tripinfo id="westEastTop.1" depart="4.00" departLane="westJunction_1" departPos="5.10" departSpeed="21.46" departDelay="1.23" arrival="58.00" arrivalLane="junctionEast_1" arrivalPos="492.80" arrivalSpeed="21.70" duration="54.00" routeLength="994.90" waitingTime="0.00" waitingCount="0" stopTime="0.00" timeLoss="8.29" rerouteNo="0" devices="tripinfo_westEastTop.1 ssm_westEastTop.1" vType="carCustom" speedFactor="1.15" vaporized=""/>
    <tripinfo id="southEast.0" depart="10.00" departLane="southJunction_0" departPos="5.10" departSpeed="22.22" departDelay="0.68" arrival="65.00" arrivalLane="junctionEast_0" arrivalPos="492.80" arrivalSpeed="21.09" duration="55.00" routeLength="989.53" waitingTime="0.00" waitingCount="0" stopTime="0.00" timeLoss="9.04" rerouteNo="0" devices="tripinfo_southEast.0 ssm_southEast.0" vType="carCustom" speedFactor="1.03" vaporized=""/>
    <tripinfo id="westEastBottom0.0" depart="9.00" departLane="westJunction_0" departPos="5.10" departSpeed="22.22" departDelay="0.55" arrival="66.00" arrivalLane="junctionEast_1" arrivalPos="492.80" arrivalSpeed="21.12" duration="57.00" routeLength="994.90" waitingTime="0.00" waitingCount="0" stopTime="0.00" timeLoss="12.07" rerouteNo="0" devices="tripinfo_westEastBottom0.0 ssm_westEastBottom0.0" vType="carCustom" speedFactor="0.85" vaporized=""/>
    <tripinfo id="westEastBottom0.1" depart="17.00" departLane="westJunction_0" departPos="5.10" departSpeed="22.22" departDelay="0.20" arrival="74.00" arrivalLane="junctionEast_0" arrivalPos="492.80" arrivalSpeed="22.05" duration="57.00" routeLength="994.90" waitingTime="0.00" waitingCount="0" stopTime="0.00" timeLoss="11.88" rerouteNo="0" devices="tripinfo_westEastBottom0.1 ssm_westEastBottom0.1" vType="carCustom" speedFactor="1.04" vaporized=""/>
    <tripinfo id="southEast.1" depart="16.00" departLane="southJunction_0" departPos="5.10" departSpeed="21.23" departDelay="0.80" arrival="80.00" arrivalLane="junctionEast_1" arrivalPos="492.80" arrivalSpeed="21.33" duration="64.00" routeLength="989.53" waitingTime="0.00" waitingCount="0" stopTime="0.00" timeLoss="17.54" rerouteNo="0" devices="tripinfo_southEast.1 ssm_southEast.1" vType="carCustom" speedFactor="0.81" vaporized=""/>
    <tripinfo id="southNorth.0" depart="6.00" departLane="southJunction_1" departPos="5.10" departSpeed="22.22" departDelay="0.69" arrival="84.00" arrivalLane="junctionNorth_0" arrivalPos="492.80" arrivalSpeed="21.35" duration="78.00" routeLength="995.01" waitingTime="21.00" waitingCount="1" stopTime="0.00" timeLoss="33.16" rerouteNo="0" devices="tripinfo_southNorth.0 ssm_southNorth.0" vType="carCustom" speedFactor="0.93" vaporized=""/>
    <tripinfo id="westEastBottom0.2" depart="19.00" departLane="westJunction_0" departPos="5.10" departSpeed="20.22" departDelay="1.05" arrival="85.00" arrivalLane="junctionEast_0" arrivalPos="492.80" arrivalSpeed="20.93" duration="66.00" routeLength="994.90" waitingTime="0.00" waitingCount="0" stopTime="0.00" timeLoss="20.67" rerouteNo="0" devices="tripinfo_westEastBottom0.2 ssm_westEastBottom0.2" vType="carCustom" speedFactor="0.91" vaporized=""/>
    <tripinfo id="westEastTop.2" depart="8.00" departLane="westJunction_1" departPos="5.10" departSpeed="14.07" departDelay="0.41" arrival="91.00" arrivalLane="junctionEast_0" arrivalPos="492.80" arrivalSpeed="21.29" duration="83.00" routeLength="994.90" waitingTime="0.00" waitingCount="0" stopTime="0.00" timeLoss="37.76" rerouteNo="0" devices="tripinfo_westEastTop.2 ssm_westEastTop.2" vType="carCustom" speedFactor="0.94" vaporized=""/>
    <tripinfo id="westEastBottom0.3" depart="29.00" departLane="westJunction_0" departPos="5.10" departSpeed="13.25" departDelay="0.48" arrival="91.00" arrivalLane="junctionEast_1" arrivalPos="492.80" arrivalSpeed="21.58" duration="62.00" routeLength="994.90" waitingTime="0.00" waitingCount="0" stopTime="0.00" timeLoss="16.66" rerouteNo="0" devices="tripinfo_westEastBottom0.3 ssm_westEastBottom0.3" vType="carCustom" speedFactor="0.95" vaporized=""/>
    <tripinfo id="southNorth.1" depart="20.00" departLane="southJunction_1" departPos="5.10" departSpeed="21.06" departDelay="0.41" arrival="92.00" arrivalLane="junctionNorth_0" arrivalPos="492.80" arrivalSpeed="21.50" duration="72.00" routeLength="995.01" waitingTime="2.00" waitingCount="1" stopTime="0.00" timeLoss="26.54" rerouteNo="0" devices="tripinfo_southNorth.1 ssm_southNorth.1" vType="carCustom" speedFactor="0.90" vaporized=""/>
    <tripinfo id="westEastTop.3" depart="15.00" departLane="westJunction_1" departPos="5.10" departSpeed="10.65" departDelay="0.07" arrival="97.00" arrivalLane="junctionEast_1" arrivalPos="492.80" arrivalSpeed="22.03" duration="82.00" routeLength="994.90" waitingTime="0.00" waitingCount="0" stopTime="0.00" timeLoss="37.01" rerouteNo="0" devices="tripinfo_westEastTop.3 ssm_westEastTop.3" vType="carCustom" speedFactor="0.97" vaporized=""/>
    <tripinfo id="southEast.2" depart="30.00" departLane="southJunction_0" departPos="5.10" departSpeed="18.58" departDelay="0.63" arrival="99.00" arrivalLane="junctionEast_0" arrivalPos="492.80" arrivalSpeed="21.14" duration="69.00" routeLength="989.53" waitingTime="3.00" waitingCount="1" stopTime="0.00" timeLoss="23.04" rerouteNo="0" devices="tripinfo_southEast.2 ssm_southEast.2" vType="carCustom" speedFactor="0.92" vaporized=""/>
    <tripinfo id="southNorth.2" depart="29.00" departLane="southJunction_1" departPos="5.10" departSpeed="21.47" departDelay="0.94" arrival="102.00" arrivalLane="junctionNorth_0" arrivalPos="492.80" arrivalSpeed="20.98" duration="73.00" routeLength="995.01" waitingTime="7.00" waitingCount="1" stopTime="0.00" timeLoss="27.93" rerouteNo="0" devices="tripinfo_southNorth.2 ssm_southNorth.2" vType="carCustom" speedFactor="0.91" vaporized=""/>
    <tripinfo id="westEastTop.4" depart="23.00" departLane="westJunction_1" departPos="5.10" departSpeed="10.14" departDelay="0.38" arrival="104.00" arrivalLane="junctionEast_1" arrivalPos="492.80" arrivalSpeed="21.36" duration="81.00" routeLength="994.90" waitingTime="0.00" waitingCount="0" stopTime="0.00" timeLoss="35.40" rerouteNo="0" devices="tripinfo_westEastTop.4 ssm_westEastTop.4" vType="carCustom" speedFactor="0.85" vaporized=""/>
    <tripinfo id="southEast.3" depart="38.00" departLane="southJunction_0" departPos="5.10" departSpeed="19.82" departDelay="0.95" arrival="106.00" arrivalLane="junctionEast_0" arrivalPos="492.80" arrivalSpeed="21.18" duration="68.00" routeLength="989.53" waitingTime="0.00" waitingCount="0" stopTime="0.00" timeLoss="21.49" rerouteNo="0" devices="tripinfo_southEast.3 ssm_southEast.3" vType="carCustom" speedFactor="0.96" vaporized=""/>
    <tripinfo id="westEastTop.5" depart="25.00" departLane="westJunction_1" departPos="5.10" departSpeed="12.11" departDelay="2.20" arrival="111.00" arrivalLane="junctionEast_1" arrivalPos="492.80" arrivalSpeed="21.22" duration="86.00" routeLength="994.90" waitingTime="5.00" waitingCount="1" stopTime="0.00" timeLoss="40.55" rerouteNo="0" devices="tripinfo_westEastTop.5 ssm_westEastTop.5" vType="carCustom" speedFactor="0.93" vaporized=""/>
    <tripinfo id="southNorth.3" depart="39.00" departLane="southJunction_1" departPos="5.10" departSpeed="18.87" departDelay="0.87" arrival="112.00" arrivalLane="junctionNorth_0" arrivalPos="492.80" arrivalSpeed="21.25" duration="73.00" routeLength="995.01" waitingTime="5.00" waitingCount="1" stopTime="0.00" timeLoss="28.11" rerouteNo="0" devices="tripinfo_southNorth.3 ssm_southNorth.3" vType="carCustom" speedFactor="0.88" vaporized=""/>
    <tripinfo id="southEast.4" depart="52.00" departLane="southJunction_0" departPos="5.10" departSpeed="17.60" departDelay="0.16" arrival="113.00" arrivalLane="junctionEast_0" arrivalPos="492.80" arrivalSpeed="21.96" duration="61.00" routeLength="989.53" waitingTime="0.00" waitingCount="0" stopTime="0.00" timeLoss="15.70" rerouteNo="0" devices="tripinfo_southEast.4 ssm_southEast.4" vType="carCustom" speedFactor="1.19" vaporized=""/>
    <tripinfo id="westEastTop.6" depart="27.00" departLane="westJunction_1" departPos="5.10" departSpeed="8.25" departDelay="1.76" arrival="119.00" arrivalLane="junctionEast_1" arrivalPos="492.80" arrivalSpeed="21.43" duration="92.00" routeLength="994.90" waitingTime="3.00" waitingCount="1" stopTime="0.00" timeLoss="47.01" rerouteNo="0" devices="tripinfo_westEastTop.6 ssm_westEastTop.6" vType="carCustom" speedFactor="1.08" vaporized=""/>
    <tripinfo id="southNorth.4" depart="50.00" departLane="southJunction_1" departPos="5.10" departSpeed="17.57" departDelay="0.47" arrival="122.00" arrivalLane="junctionNorth_0" arrivalPos="492.80" arrivalSpeed="21.62" duration="72.00" routeLength="995.01" waitingTime="4.00" waitingCount="1" stopTime="0.00" timeLoss="26.80" rerouteNo="0" devices="tripinfo_southNorth.4 ssm_southNorth.4" vType="carCustom" speedFactor="0.97" vaporized=""/>
    <tripinfo id="southEast.5" depart="61.00" departLane="southJunction_0" departPos="5.10" departSpeed="18.33" departDelay="0.92" arrival="125.00" arrivalLane="junctionEast_1" arrivalPos="492.80" arrivalSpeed="22.21" duration="64.00" routeLength="989.53" waitingTime="0.00" waitingCount="0" stopTime="0.00" timeLoss="17.78" rerouteNo="0" devices="tripinfo_southEast.5 ssm_southEast.5" vType="carCustom" speedFactor="0.99" vaporized=""/>
    <tripinfo id="southNorth.5" depart="55.00" departLane="southJunction_1" departPos="5.10" departSpeed="19.86" departDelay="0.66" arrival="130.00" arrivalLane="junctionNorth_0" arrivalPos="492.80" arrivalSpeed="21.39" duration="75.00" routeLength="995.01" waitingTime="0.00" waitingCount="0" stopTime="0.00" timeLoss="29.40" rerouteNo="0" devices="tripinfo_southNorth.5 ssm_southNorth.5" vType="carCustom" speedFactor="0.92" vaporized=""/>
    <tripinfo id="westEastTop.7" depart="36.00" departLane="westJunction_1" departPos="5.10" departSpeed="7.47" departDelay="0.49" arrival="132.00" arrivalLane="junctionEast_1" arrivalPos="492.80" arrivalSpeed="21.31" duration="96.00" routeLength="994.90" waitingTime="4.00" waitingCount="1" stopTime="0.00" timeLoss="50.36" rerouteNo="0" devices="tripinfo_westEastTop.7 ssm_westEastTop.7" vType="carCustom" speedFactor="0.85" vaporized=""/>
    <tripinfo id="southEast.6" depart="66.00" departLane="southJunction_0" departPos="5.10" departSpeed="17.42" departDelay="0.38" arrival="133.00" arrivalLane="junctionEast_0" arrivalPos="492.80" arrivalSpeed="20.94" duration="67.00" routeLength="989.53" waitingTime="0.00" waitingCount="0" stopTime="0.00" timeLoss="21.16" rerouteNo="0" devices="tripinfo_southEast.6 ssm_southEast.6" vType="carCustom" speedFactor="1.11" vaporized=""/>
    <tripinfo id="southNorth.6" depart="59.00" departLane="southJunction_1" departPos="5.10" departSpeed="15.31" departDelay="0.50" arrival="137.00" arrivalLane="junctionNorth_0" arrivalPos="492.80" arrivalSpeed="20.95" duration="78.00" routeLength="995.01" waitingTime="1.00" waitingCount="1" stopTime="0.00" timeLoss="33.17" rerouteNo="0" devices="tripinfo_southNorth.6 ssm_southNorth.6" vType="carCustom" speedFactor="1.02" vaporized=""/>
    <tripinfo id="westEastBottom0.4" depart="51.00" departLane="westJunction_0" departPos="5.10" departSpeed="17.35" departDelay="0.17" arrival="138.00" arrivalLane="junctionEast_1" arrivalPos="492.80" arrivalSpeed="21.36" duration="87.00" routeLength="994.90" waitingTime="0.00" waitingCount="0" stopTime="0.00" timeLoss="41.94" rerouteNo="0" devices="tripinfo_westEastBottom0.4 ssm_westEastBottom0.4" vType="carCustom" speedFactor="0.86" vaporized=""/>
    <tripinfo id="westEastBottom0.5" depart="78.00" departLane="westJunction_0" departPos="5.10" departSpeed="22.22" departDelay="0.74" arrival="145.00" arrivalLane="junctionEast_1" arrivalPos="492.80" arrivalSpeed="21.31" duration="67.00" routeLength="994.90" waitingTime="4.00" waitingCount="1" stopTime="0.00" timeLoss="21.10" rerouteNo="0" devices="tripinfo_westEastBottom0.5 ssm_westEastBottom0.5" vType="carCustom" speedFactor="1.13" vaporized=""/>
    <tripinfo id="southNorth.7" depart="82.00" departLane="southJunction_1" departPos="5.10" departSpeed="13.55" departDelay="0.84" arrival="145.00" arrivalLane="junctionNorth_0" arrivalPos="492.80" arrivalSpeed="21.62" duration="63.00" routeLength="995.01" waitingTime="0.00" waitingCount="0" stopTime="0.00" timeLoss="18.05" rerouteNo="0" devices="tripinfo_southNorth.7 ssm_southNorth.7" vType="carCustom" speedFactor="1.00" vaporized=""/>
    <tripinfo id="westEastTop.8" depart="55.00" departLane="westJunction_1" departPos="5.10" departSpeed="15.77" departDelay="0.37" arrival="149.00" arrivalLane="junctionEast_0" arrivalPos="492.80" arrivalSpeed="21.56" duration="94.00" routeLength="994.90" waitingTime="2.00" waitingCount="1" stopTime="0.00" timeLoss="48.65" rerouteNo="0" devices="tripinfo_westEastTop.8 ssm_westEastTop.8" vType="carCustom" speedFactor="0.89" vaporized=""/>
    <tripinfo id="southEast.7" depart="77.00" departLane="southJunction_0" departPos="5.10" departSpeed="14.51" departDelay="0.46" arrival="150.00" arrivalLane="junctionEast_1" arrivalPos="492.80" arrivalSpeed="21.84" duration="73.00" routeLength="989.53" waitingTime="2.00" waitingCount="1" stopTime="0.00" timeLoss="27.74" rerouteNo="0" devices="tripinfo_southEast.7 ssm_southEast.7" vType="carCustom" speedFactor="1.06" vaporized=""/>
    <tripinfo id="westEastTop.9" depart="62.00" departLane="westJunction_1" departPos="5.10" departSpeed="12.05" departDelay="0.65" arrival="156.00" arrivalLane="junctionEast_1" arrivalPos="492.80" arrivalSpeed="21.61" duration="94.00" routeLength="994.90" waitingTime="5.00" waitingCount="1" stopTime="0.00" timeLoss="49.04" rerouteNo="0" devices="tripinfo_westEastTop.9 ssm_westEastTop.9" vType="carCustom" speedFactor="0.92" vaporized=""/>
    <tripinfo id="westEastBottom0.6" depart="80.00" departLane="westJunction_0" departPos="5.10" departSpeed="20.20" departDelay="1.30" arrival="156.00" arrivalLane="junctionEast_0" arrivalPos="492.80" arrivalSpeed="22.20" duration="76.00" routeLength="994.90" waitingTime="0.00" waitingCount="0" stopTime="0.00" timeLoss="30.28" rerouteNo="0" devices="tripinfo_westEastBottom0.6 ssm_westEastBottom0.6" vType="carCustom" speedFactor="1.08" vaporized=""/>
    <tripinfo id="southEast.8" depart="80.00" departLane="southJunction_0" departPos="5.10" departSpeed="17.90" departDelay="0.64" arrival="162.00" arrivalLane="junctionEast_0" arrivalPos="492.80" arrivalSpeed="21.50" duration="82.00" routeLength="989.53" waitingTime="2.00" waitingCount="1" stopTime="0.00" timeLoss="36.66" rerouteNo="0" devices="tripinfo_southEast.8 ssm_southEast.8" vType="carCustom" speedFactor="0.95" vaporized=""/>
    <tripinfo id="westEastTop.10" depart="76.00" departLane="westJunction_1" departPos="5.10" departSpeed="11.06" departDelay="0.97" arrival="163.00" arrivalLane="junctionEast_1" arrivalPos="492.80" arrivalSpeed="21.55" duration="87.00" routeLength="994.90" waitingTime="0.00" waitingCount="0" stopTime="0.00" timeLoss="41.32" rerouteNo="0" devices="tripinfo_westEastTop.10 ssm_westEastTop.10" vType="carCustom" speedFactor="1.01" vaporized=""/>
    <tripinfo id="westEastTop.11" depart="81.00" departLane="westJunction_1" departPos="5.10" departSpeed="15.91" departDelay="0.13" arrival="169.00" arrivalLane="junctionEast_1" arrivalPos="492.80" arrivalSpeed="21.30" duration="88.00" routeLength="994.90" waitingTime="0.00" waitingCount="0" stopTime="0.00" timeLoss="42.58" rerouteNo="0" devices="tripinfo_westEastTop.11 ssm_westEastTop.11" vType="carCustom" speedFactor="0.90" vaporized=""/>
    <tripinfo id="westEastBottom0.7" depart="102.00" departLane="westJunction_0" departPos="5.10" departSpeed="14.79" departDelay="0.88" arrival="169.00" arrivalLane="junctionEast_0" arrivalPos="492.80" arrivalSpeed="21.41" duration="67.00" routeLength="994.90" waitingTime="0.00" waitingCount="0" stopTime="0.00" timeLoss="21.90" rerouteNo="0" devices="tripinfo_westEastBottom0.7 ssm_westEastBottom0.7" vType="carCustom" speedFactor="0.95" vaporized=""/>
    <tripinfo id="westEastTop.12" depart="86.00" departLane="westJunction_1" departPos="5.10" departSpeed="13.28" departDelay="0.38" arrival="175.00" arrivalLane="junctionEast_1" arrivalPos="492.80" arrivalSpeed="21.82" duration="89.00" routeLength="994.90" waitingTime="0.00" waitingCount="0" stopTime="0.00" timeLoss="43.71" rerouteNo="0" devices="tripinfo_westEastTop.12 ssm_westEastTop.12" vType="carCustom" speedFactor="1.09" vaporized=""/>
    <tripinfo id="southNorth.8" depart="112.00" departLane="southJunction_1" departPos="5.10" departSpeed="7.51" departDelay="0.57" arrival="175.00" arrivalLane="junctionNorth_0" arrivalPos="492.80" arrivalSpeed="22.17" duration="63.00" routeLength="995.01" waitingTime="4.00" waitingCount="1" stopTime="0.00" timeLoss="17.56" rerouteNo="0" devices="tripinfo_southNorth.8 ssm_southNorth.8" vType="carCustom" speedFactor="0.99" vaporized=""/>
    <tripinfo id="southEast.9" depart="93.00" departLane="southJunction_0" departPos="5.10" departSpeed="13.09" departDelay="0.98" arrival="176.00" arrivalLane="junctionEast_0" arrivalPos="492.80" arrivalSpeed="21.53" duration="83.00" routeLength="989.53" waitingTime="3.00" waitingCount="1" stopTime="0.00" timeLoss="37.28" rerouteNo="0" devices="tripinfo_southEast.9 ssm_southEast.9" vType="carCustom" speedFactor="0.99" vaporized=""/>
    <tripinfo id="westEastTop.13" depart="91.00" departLane="westJunction_1" departPos="5.10" departSpeed="12.03" departDelay="0.09" arrival="181.00" arrivalLane="junctionEast_1" arrivalPos="492.80" arrivalSpeed="21.87" duration="90.00" routeLength="994.90" waitingTime="0.00" waitingCount="0" stopTime="0.00" timeLoss="44.84" rerouteNo="0" devices="tripinfo_westEastTop.13 ssm_westEastTop.13" vType="carCustom" speedFactor="1.12" vaporized=""/>
    <tripinfo id="westEastBottom0.8" depart="105.00" departLane="westJunction_0" departPos="5.10" departSpeed="17.19" departDelay="0.73" arrival="182.00" arrivalLane="junctionEast_0" arrivalPos="492.80" arrivalSpeed="21.69" duration="77.00" routeLength="994.90" waitingTime="0.00" waitingCount="0" stopTime="0.00" timeLoss="31.75" rerouteNo="0" devices="tripinfo_westEastBottom0.8 ssm_westEastBottom0.8" vType="carCustom" speedFactor="0.97" vaporized=""/>
    <tripinfo id="southNorth.9" depart="118.00" departLane="southJunction_1" departPos="5.10" departSpeed="18.71" departDelay="0.06" arrival="185.00" arrivalLane="junctionNorth_0" arrivalPos="492.80" arrivalSpeed="21.69" duration="67.00" routeLength="995.01" waitingTime="1.00" waitingCount="1" stopTime="0.00" timeLoss="21.53" rerouteNo="0" devices="tripinfo_southNorth.9 ssm_southNorth.9" vType="carCustom" speedFactor="1.02" vaporized=""/>
    <tripinfo id="westEastTop.14" depart="97.00" departLane="westJunction_1" departPos="5.10" departSpeed="10.90" departDelay="0.05" arrival="187.00" arrivalLane="junctionEast_1" arrivalPos="492.80" arrivalSpeed="21.71" duration="90.00" routeLength="994.90" waitingTime="0.00" waitingCount="0" stopTime="0.00" timeLoss="44.91" rerouteNo="0" devices="tripinfo_westEastTop.14 ssm_westEastTop.14" vType="carCustom" speedFactor="1.00" vaporized=""/>
    <tripinfo id="southEast.10" depart="104.00" departLane="southJunction_0" departPos="5.10" departSpeed="15.46" departDelay="0.64" arrival="188.00" arrivalLane="junctionEast_0" arrivalPos="492.80" arrivalSpeed="21.48" duration="84.00" routeLength="989.53" waitingTime="3.00" waitingCount="1" stopTime="0.00" timeLoss="38.47" rerouteNo="0" devices="tripinfo_southEast.10 ssm_southEast.10" vType="carCustom" speedFactor="1.05" vaporized=""/>
    <tripinfo id="westEastTop.15" depart="111.00" departLane="westJunction_1" departPos="5.10" departSpeed="10.92" departDelay="0.66" arrival="193.00" arrivalLane="junctionEast_1" arrivalPos="492.80" arrivalSpeed="21.91" duration="82.00" routeLength="994.90" waitingTime="0.00" waitingCount="0" stopTime="0.00" timeLoss="36.66" rerouteNo="0" devices="tripinfo_westEastTop.15 ssm_westEastTop.15" vType="carCustom" speedFactor="1.15" vaporized=""/>
    <tripinfo id="westEastBottom0.9" depart="115.00" departLane="westJunction_0" departPos="5.10" departSpeed="12.77" departDelay="0.52" arrival="194.00" arrivalLane="junctionEast_0" arrivalPos="492.80" arrivalSpeed="21.21" duration="79.00" routeLength="994.90" waitingTime="0.00" waitingCount="0" stopTime="0.00" timeLoss="33.80" rerouteNo="0" devices="tripinfo_westEastBottom0.9 ssm_westEastBottom0.9" vType="carCustom" speedFactor="0.83" vaporized=""/>
    <tripinfo id="southNorth.10" depart="125.00" departLane="southJunction_1" departPos="5.10" departSpeed="16.59" departDelay="0.15" arrival="195.00" arrivalLane="junctionNorth_0" arrivalPos="492.80" arrivalSpeed="22.04" duration="70.00" routeLength="995.01" waitingTime="2.00" waitingCount="1" stopTime="0.00" timeLoss="25.19" rerouteNo="0" devices="tripinfo_southNorth.10 ssm_southNorth.10" vType="carCustom" speedFactor="0.92" vaporized=""/>
    <tripinfo id="southEast.11" depart="115.00" departLane="southJunction_0" departPos="5.10" departSpeed="16.73" departDelay="0.14" arrival="199.00" arrivalLane="junctionEast_1" arrivalPos="492.80" arrivalSpeed="21.93" duration="84.00" routeLength="989.53" waitingTime="3.00" waitingCount="1" stopTime="0.00" timeLoss="38.01" rerouteNo="0" devices="tripinfo_southEast.11 ssm_southEast.11" vType="carCustom" speedFactor="0.97" vaporized=""/>
    <tripinfo id="southEast.12" depart="119.00" departLane="southJunction_0" departPos="5.10" departSpeed="19.85" departDelay="0.13" arrival="200.00" arrivalLane="junctionEast_0" arrivalPos="492.80" arrivalSpeed="21.39" duration="81.00" routeLength="989.53" waitingTime="0.00" waitingCount="0" stopTime="0.00" timeLoss="35.05" rerouteNo="0" devices="tripinfo_southEast.12 ssm_southEast.12" vType="carCustom" speedFactor="1.06" vaporized=""/>
    <tripinfo id="westEastTop.16" depart="113.00" departLane="westJunction_1" departPos="5.10" departSpeed="15.03" departDelay="0.82" arrival="205.00" arrivalLane="junctionEast_1" arrivalPos="492.80" arrivalSpeed="22.18" duration="92.00" routeLength="994.90" waitingTime="1.00" waitingCount="1" stopTime="0.00" timeLoss="46.62" rerouteNo="0" devices="tripinfo_westEastTop.16 ssm_westEastTop.16" vType="carCustom" speedFactor="1.02" vaporized=""/>
    <tripinfo id="westEastBottom0.16" depart="158.00" departLane="westJunction_0" departPos="5.10" departSpeed="9.16" departDelay="3.43" arrival="205.00" arrivalLane="junctionEast_0" arrivalPos="492.80" arrivalSpeed="10.35" duration="47.00" routeLength="994.90" waitingTime="0.00" waitingCount="0" stopTime="0.00" timeLoss="23.94" rerouteNo="0" devices="tripinfo_westEastBottom0.16 ssm_westEastBottom0.16" vType="carCustom" speedFactor="0.96" vaporized="teleport"/>
    <tripinfo id="westEastBottom0.10" depart="135.00" departLane="westJunction_0" departPos="5.10" departSpeed="14.82" departDelay="0.62" arrival="206.00" arrivalLane="junctionEast_0" arrivalPos="492.80" arrivalSpeed="21.36" duration="71.00" routeLength="994.90" waitingTime="0.00" waitingCount="0" stopTime="0.00" timeLoss="25.95" rerouteNo="0" devices="tripinfo_westEastBottom0.10 ssm_westEastBottom0.10" vType="carCustom" speedFactor="1.15" vaporized=""/>
    <tripinfo id="southEast.13" depart="121.00" departLane="southJunction_0" departPos="5.10" departSpeed="16.08" departDelay="0.11" arrival="211.00" arrivalLane="junctionEast_1" arrivalPos="492.80" arrivalSpeed="21.10" duration="90.00" routeLength="989.53" waitingTime="0.00" waitingCount="0" stopTime="0.00" timeLoss="43.59" rerouteNo="0" devices="tripinfo_southEast.13 ssm_southEast.13" vType="carCustom" speedFactor="1.07" vaporized=""/>
    <tripinfo id="westEastBottom0.11" depart="137.00" departLane="westJunction_0" departPos="5.10" departSpeed="18.39" departDelay="0.69" arrival="212.00" arrivalLane="junctionEast_0" arrivalPos="492.80" arrivalSpeed="21.74" duration="75.00" routeLength="994.90" waitingTime="0.00" waitingCount="0" stopTime="0.00" timeLoss="29.95" rerouteNo="0" devices="tripinfo_westEastBottom0.11 ssm_westEastBottom0.11" vType="carCustom" speedFactor="0.89" vaporized=""/>
    <tripinfo id="westEastTop.17" depart="123.00" departLane="westJunction_1" departPos="5.10" departSpeed="11.75" departDelay="0.78" arrival="217.00" arrivalLane="junctionEast_1" arrivalPos="492.80" arrivalSpeed="21.18" duration="94.00" routeLength="994.90" waitingTime="2.00" waitingCount="1" stopTime="0.00" timeLoss="48.53" rerouteNo="0" devices="tripinfo_westEastTop.17 ssm_westEastTop.17" vType="carCustom" speedFactor="1.03" vaporized=""/>
    <tripinfo id="westEastBottom0.12" depart="146.00" departLane="westJunction_0" departPos="5.10" departSpeed="12.27" departDelay="0.12" arrival="219.00" arrivalLane="junctionEast_0" arrivalPos="492.80" arrivalSpeed="21.85" duration="73.00" routeLength="994.90" waitingTime="0.00" waitingCount="0" stopTime="0.00" timeLoss="27.27" rerouteNo="0" devices="tripinfo_westEastBottom0.12 ssm_westEastBottom0.12" vType="carCustom" speedFactor="1.09" vaporized=""/>
    <tripinfo id="westEastTop.18" depart="127.00" departLane="westJunction_1" departPos="5.10" departSpeed="13.81" departDelay="0.06" arrival="223.00" arrivalLane="junctionEast_1" arrivalPos="492.80" arrivalSpeed="21.32" duration="96.00" routeLength="994.90" waitingTime="0.00" waitingCount="0" stopTime="0.00" timeLoss="50.43" rerouteNo="0" devices="tripinfo_westEastTop.18 ssm_westEastTop.18" vType="carCustom" speedFactor="0.96" vaporized=""/>
    <tripinfo id="westEastBottom0.13" depart="148.00" departLane="westJunction_0" departPos="5.10" departSpeed="13.35" departDelay="1.68" arrival="225.00" arrivalLane="junctionEast_0" arrivalPos="492.80" arrivalSpeed="22.15" duration="77.00" routeLength="994.90" waitingTime="0.00" waitingCount="0" stopTime="0.00" timeLoss="31.51" rerouteNo="0" devices="tripinfo_westEastBottom0.13 ssm_westEastBottom0.13" vType="carCustom" speedFactor="1.05" vaporized=""/>
    <tripinfo id="westEastTop.19" depart="133.00" departLane="westJunction_1" departPos="5.10" departSpeed="11.15" departDelay="0.13" arrival="228.00" arrivalLane="junctionEast_1" arrivalPos="492.80" arrivalSpeed="21.60" duration="95.00" routeLength="994.90" waitingTime="0.00" waitingCount="0" stopTime="0.00" timeLoss="50.16" rerouteNo="0" devices="tripinfo_westEastTop.19 ssm_westEastTop.19" vType="carCustom" speedFactor="1.13" vaporized=""/>
    <tripinfo id="westEastBottom0.14" depart="154.00" departLane="westJunction_0" departPos="5.10" departSpeed="10.09" departDelay="0.79" arrival="231.00" arrivalLane="junctionEast_0" arrivalPos="492.80" arrivalSpeed="21.66" duration="77.00" routeLength="994.90" waitingTime="0.00" waitingCount="0" stopTime="0.00" timeLoss="31.88" rerouteNo="0" devices="tripinfo_westEastBottom0.14 ssm_westEastBottom0.14" vType="carCustom" speedFactor="0.94" vaporized=""/>
    <tripinfo id="westEastTop.20" depart="141.00" departLane="westJunction_1" departPos="5.10" departSpeed="11.33" departDelay="0.97" arrival="234.00" arrivalLane="junctionEast_1" arrivalPos="492.80" arrivalSpeed="22.10" duration="93.00" routeLength="994.90" waitingTime="0.00" waitingCount="0" stopTime="0.00" timeLoss="47.74" rerouteNo="0" devices="tripinfo_westEastTop.20 ssm_westEastTop.20" vType="carCustom" speedFactor="1.04" vaporized=""/>
    <tripinfo id="southEast.14" depart="142.00" departLane="southJunction_0" departPos="5.10" departSpeed="12.78" departDelay="0.81" arrival="238.00" arrivalLane="junctionEast_0" arrivalPos="492.80" arrivalSpeed="21.06" duration="96.00" routeLength="989.53" waitingTime="23.00" waitingCount="1" stopTime="0.00" timeLoss="49.25" rerouteNo="0" devices="tripinfo_southEast.14 ssm_southEast.14" vType="carCustom" speedFactor="0.79" vaporized=""/>