<?xml version="1.0" encoding="UTF-8"?>

<!-- generated on 2025-04-29 08:40:43 by Eclipse SUMO sumo Version 1.20.0
<configuration xmlns:xsi="http://www.w3.org/2001/XMLSchema-instance" xsi:noNamespaceSchemaLocation="http://sumo.dlr.de/xsd/sumoConfiguration.xsd">

    <input>
        <net-file value="nets/2lane_unprotected_right/2lane_unprotected_right.net.xml"/>
        <route-files value="nets/2lane_unprotected_right/2lane_unprotected_right.rou.xml"/>
    </input>

    <output>
        <tripinfo-output value="traces/transs50f1_s50_f0.5_random/0171_tripinfo.xml"/>
        <collision-output value="traces/transs50f1_s50_f0.5_random/0171_collisions.xml"/>
        <statistic-output value="traces/transs50f1_s50_f0.5_random/0171_statistics.xml"/>
    </output>

    <processing>
        <collision.action value="teleport"/>
        <collision.check-junctions value="true"/>
        <time-to-teleport value="-1"/>
        <waiting-time-memory value="1000"/>
        <max-depart-delay value="-1"/>
        <default.speeddev value="0.1"/>
    </processing>

    <report>
        <no-warnings value="true"/>
    </report>

    <ssm_device>
        <device.ssm.probability value="1.0"/>
        <device.ssm.measures value="BR"/>
        <device.ssm.file value="/Users/finn/Code/CausalKnowledgeTransfer-4-SafeRL/traces/transs50f1_s50_f0.5_random/0171_ssm.xml"/>
    </ssm_device>

    <traci_server>
        <remote-port value="64524"/>
    </traci_server>

    <random_number>
        <random value="true"/>
    </random_number>

</configuration>
-->

<tripinfos xmlns:xsi="http://www.w3.org/2001/XMLSchema-instance" xsi:noNamespaceSchemaLocation="http://sumo.dlr.de/xsd/tripinfo_file.xsd">
    <tripinfo id="westEastTop.0" depart="3.00" departLane="westJunction_1" departPos="5.10" departSpeed="27.78" departDelay="0.53" arrival="40.00" arrivalLane="junctionEast_1" arrivalPos="492.80" arrivalSpeed="27.41" duration="37.00" routeLength="994.90" waitingTime="0.00" waitingCount="0" stopTime="0.00" timeLoss="0.87" rerouteNo="0" devices="tripinfo_westEastTop.0 ssm_westEastTop.0" vType="carCustom" speedFactor="0.97" vaporized=""/>
    <tripinfo id="westEastTop.1" depart="5.00" departLane="westJunction_1" departPos="5.10" departSpeed="27.61" departDelay="1.63" arrival="48.00" arrivalLane="junctionEast_1" arrivalPos="492.80" arrivalSpeed="26.86" duration="43.00" routeLength="994.90" waitingTime="0.00" waitingCount="0" stopTime="0.00" timeLoss="6.96" rerouteNo="0" devices="tripinfo_westEastTop.1 ssm_westEastTop.1" vType="carCustom" speedFactor="1.09" vaporized=""/>
    <tripinfo id="westEastTop.2" depart="10.00" departLane="westJunction_1" departPos="5.10" departSpeed="17.56" departDelay="0.67" arrival="56.00" arrivalLane="junctionEast_1" arrivalPos="492.80" arrivalSpeed="27.13" duration="46.00" routeLength="994.90" waitingTime="0.00" waitingCount="0" stopTime="0.00" timeLoss="9.42" rerouteNo="0" devices="tripinfo_westEastTop.2 ssm_westEastTop.2" vType="carCustom" speedFactor="0.85" vaporized=""/>
    <tripinfo id="southEast.0" depart="1.00" departLane="southJunction_0" departPos="5.10" departSpeed="27.78" departDelay="0.58" arrival="57.00" arrivalLane="junctionEast_0" arrivalPos="492.80" arrivalSpeed="27.71" duration="56.00" routeLength="989.53" waitingTime="6.00" waitingCount="1" stopTime="0.00" timeLoss="19.23" rerouteNo="0" devices="tripinfo_southEast.0 ssm_southEast.0" vType="carCustom" speedFactor="1.03" vaporized=""/>
    <tripinfo id="westEastTop.3" depart="12.00" departLane="westJunction_1" departPos="5.10" departSpeed="16.88" departDelay="2.54" arrival="63.00" arrivalLane="junctionEast_1" arrivalPos="492.80" arrivalSpeed="26.64" duration="51.00" routeLength="994.90" waitingTime="0.00" waitingCount="0" stopTime="0.00" timeLoss="14.61" rerouteNo="0" devices="tripinfo_westEastTop.3 ssm_westEastTop.3" vType="carCustom" speedFactor="0.99" vaporized=""/>
    <tripinfo id="southEast.1" depart="8.00" departLane="southJunction_0" departPos="5.10" departSpeed="26.69" departDelay="0.51" arrival="64.00" arrivalLane="junctionEast_0" arrivalPos="492.80" arrivalSpeed="27.50" duration="56.00" routeLength="989.53" waitingTime="0.00" waitingCount="0" stopTime="0.00" timeLoss="18.78" rerouteNo="0" devices="tripinfo_southEast.1 ssm_southEast.1" vType="carCustom" speedFactor="1.11" vaporized=""/>
    <tripinfo id="westEastBottom0.0" depart="19.00" departLane="westJunction_0" departPos="5.10" departSpeed="27.78" departDelay="0.41" arrival="69.00" arrivalLane="junctionEast_1" arrivalPos="492.80" arrivalSpeed="26.77" duration="50.00" routeLength="994.90" waitingTime="0.00" waitingCount="0" stopTime="0.00" timeLoss="13.94" rerouteNo="0" devices="tripinfo_westEastBottom0.0 ssm_westEastBottom0.0" vType="carCustom" speedFactor="1.00" vaporized=""/>
    <tripinfo id="southEast.2" depart="10.00" departLane="southJunction_0" departPos="5.10" departSpeed="23.78" departDelay="0.98" arrival="70.00" arrivalLane="junctionEast_0" arrivalPos="492.80" arrivalSpeed="27.19" duration="60.00" routeLength="989.53" waitingTime="0.00" waitingCount="0" stopTime="0.00" timeLoss="22.79" rerouteNo="0" devices="tripinfo_southEast.2 ssm_southEast.2" vType="carCustom" speedFactor="0.99" vaporized=""/>
    <tripinfo id="southNorth.0" depart="21.00" departLane="southJunction_1" departPos="5.10" departSpeed="27.78" departDelay="0.91" arrival="76.00" arrivalLane="junctionNorth_0" arrivalPos="492.80" arrivalSpeed="27.09" duration="55.00" routeLength="995.01" waitingTime="6.00" waitingCount="1" stopTime="0.00" timeLoss="18.49" rerouteNo="0" devices="tripinfo_southNorth.0 ssm_southNorth.0" vType="carCustom" speedFactor="0.99" vaporized=""/>
    <tripinfo id="southEast.3" depart="17.00" departLane="southJunction_0" departPos="5.10" departSpeed="16.59" departDelay="0.25" arrival="77.00" arrivalLane="junctionEast_0" arrivalPos="492.80" arrivalSpeed="27.71" duration="60.00" routeLength="989.53" waitingTime="0.00" waitingCount="0" stopTime="0.00" timeLoss="22.84" rerouteNo="0" devices="tripinfo_southEast.3 ssm_southEast.3" vType="carCustom" speedFactor="1.15" vaporized=""/>
    <tripinfo id="westEastTop.4" depart="16.00" departLane="westJunction_1" departPos="5.10" departSpeed="11.30" departDelay="0.36" arrival="81.00" arrivalLane="junctionEast_1" arrivalPos="492.80" arrivalSpeed="27.50" duration="65.00" routeLength="994.90" waitingTime="5.00" waitingCount="1" stopTime="0.00" timeLoss="28.38" rerouteNo="0" devices="tripinfo_westEastTop.4 ssm_westEastTop.4" vType="carCustom" speedFactor="1.11" vaporized=""/>
    <tripinfo id="southEast.4" depart="19.00" departLane="southJunction_0" departPos="5.10" departSpeed="17.16" departDelay="1.66" arrival="83.00" arrivalLane="junctionEast_0" arrivalPos="492.80" arrivalSpeed="27.48" duration="64.00" routeLength="989.53" waitingTime="0.00" waitingCount="0" stopTime="0.00" timeLoss="27.40" rerouteNo="0" devices="tripinfo_southEast.4 ssm_southEast.4" vType="carCustom" speedFactor="1.08" vaporized=""/>
    <tripinfo id="southNorth.1" depart="28.00" departLane="southJunction_1" departPos="5.10" departSpeed="26.69" departDelay="0.39" arrival="85.00" arrivalLane="junctionNorth_0" arrivalPos="492.80" arrivalSpeed="26.69" duration="57.00" routeLength="995.01" waitingTime="2.00" waitingCount="1" stopTime="0.00" timeLoss="21.11" rerouteNo="0" devices="tripinfo_southNorth.1 ssm_southNorth.1" vType="carCustom" speedFactor="0.96" vaporized=""/>
    <tripinfo id="westEastBottom0.1" depart="25.00" departLane="westJunction_0" departPos="5.10" departSpeed="20.11" departDelay="0.99" arrival="91.00" arrivalLane="junctionEast_1" arrivalPos="492.80" arrivalSpeed="27.29" duration="66.00" routeLength="994.90" waitingTime="3.00" waitingCount="1" stopTime="0.00" timeLoss="29.58" rerouteNo="0" devices="tripinfo_westEastBottom0.1 ssm_westEastBottom0.1" vType="carCustom" speedFactor="0.86" vaporized=""/>
    <tripinfo id="southEast.5" depart="26.00" departLane="southJunction_0" departPos="5.10" departSpeed="12.89" departDelay="0.50" arrival="91.00" arrivalLane="junctionEast_0" arrivalPos="492.80" arrivalSpeed="27.34" duration="65.00" routeLength="989.53" waitingTime="0.00" waitingCount="0" stopTime="0.00" timeLoss="27.63" rerouteNo="0" devices="tripinfo_southEast.5 ssm_southEast.5" vType="carCustom" speedFactor="0.74" vaporized=""/>
    <tripinfo id="southEast.10" depart="55.00" departLane="southJunction_0" departPos="5.10" departSpeed="11.32" departDelay="0.53" arrival="96.00" arrivalLane="junctionEast_0" arrivalPos="492.80" arrivalSpeed="7.45" duration="41.00" routeLength="989.53" waitingTime="0.00" waitingCount="0" stopTime="0.00" timeLoss="22.41" rerouteNo="0" devices="tripinfo_southEast.10 ssm_southEast.10" vType="carCustom" speedFactor="1.17" vaporized="teleport"/>
    <tripinfo id="westEastTop.5" depart="20.00" departLane="westJunction_1" departPos="5.10" departSpeed="11.84" departDelay="0.38" arrival="97.00" arrivalLane="junctionEast_1" arrivalPos="492.80" arrivalSpeed="27.31" duration="77.00" routeLength="994.90" waitingTime="0.00" waitingCount="0" stopTime="0.00" timeLoss="40.82" rerouteNo="0" devices="tripinfo_westEastTop.5 ssm_westEastTop.5" vType="carCustom" speedFactor="0.94" vaporized=""/>
    <tripinfo id="westEastBottom0.2" depart="43.00" departLane="westJunction_0" departPos="5.10" departSpeed="27.78" departDelay="0.08" arrival="98.00" arrivalLane="junctionEast_0" arrivalPos="492.80" arrivalSpeed="27.38" duration="55.00" routeLength="994.90" waitingTime="0.00" waitingCount="0" stopTime="0.00" timeLoss="18.32" rerouteNo="0" devices="tripinfo_westEastBottom0.2 ssm_westEastBottom0.2" vType="carCustom" speedFactor="0.97" vaporized=""/>
    <tripinfo id="westEastTop.6" depart="22.00" departLane="westJunction_1" departPos="5.10" departSpeed="9.57" departDelay="2.02" arrival="103.00" arrivalLane="junctionEast_1" arrivalPos="492.80" arrivalSpeed="26.74" duration="81.00" routeLength="994.90" waitingTime="0.00" waitingCount="0" stopTime="0.00" timeLoss="44.84" rerouteNo="0" devices="tripinfo_westEastTop.6 ssm_westEastTop.6" vType="carCustom" speedFactor="1.02" vaporized=""/>
    <tripinfo id="southEast.6" depart="28.00" departLane="southJunction_0" departPos="5.10" departSpeed="13.74" departDelay="1.11" arrival="104.00" arrivalLane="junctionEast_0" arrivalPos="492.80" arrivalSpeed="26.91" duration="76.00" routeLength="989.53" waitingTime="3.00" waitingCount="1" stopTime="0.00" timeLoss="38.75" rerouteNo="0" devices="tripinfo_southEast.6 ssm_southEast.6" vType="carCustom" speedFactor="1.11" vaporized=""/>
    <tripinfo id="westEastTop.7" depart="30.00" departLane="westJunction_1" departPos="5.10" departSpeed="9.59" departDelay="0.02" arrival="109.00" arrivalLane="junctionEast_1" arrivalPos="492.80" arrivalSpeed="27.17" duration="79.00" routeLength="994.90" waitingTime="0.00" waitingCount="0" stopTime="0.00" timeLoss="42.36" rerouteNo="0" devices="tripinfo_westEastTop.7 ssm_westEastTop.7" vType="carCustom" speedFactor="1.09" vaporized=""/>
    <tripinfo id="southNorth.2" depart="31.00" departLane="southJunction_1" departPos="5.10" departSpeed="24.47" departDelay="0.78" arrival="110.00" arrivalLane="junctionNorth_0" arrivalPos="492.80" arrivalSpeed="26.57" duration="79.00" routeLength="995.01" waitingTime="17.00" waitingCount="1" stopTime="0.00" timeLoss="42.55" rerouteNo="0" devices="tripinfo_southNorth.2 ssm_southNorth.2" vType="carCustom" speedFactor="1.01" vaporized=""/>
    <tripinfo id="southEast.7" depart="35.00" departLane="southJunction_0" departPos="5.10" departSpeed="11.91" departDelay="0.66" arrival="110.00" arrivalLane="junctionEast_0" arrivalPos="492.80" arrivalSpeed="27.27" duration="75.00" routeLength="989.53" waitingTime="0.00" waitingCount="0" stopTime="0.00" timeLoss="37.19" rerouteNo="0" devices="tripinfo_southEast.7 ssm_southEast.7" vType="carCustom" speedFactor="0.93" vaporized=""/>
    <tripinfo id="westEastTop.8" depart="34.00" departLane="westJunction_1" departPos="5.10" departSpeed="11.25" departDelay="0.22" arrival="114.00" arrivalLane="junctionEast_1" arrivalPos="492.80" arrivalSpeed="27.16" duration="80.00" routeLength="994.90" waitingTime="0.00" waitingCount="0" stopTime="0.00" timeLoss="43.84" rerouteNo="0" devices="tripinfo_westEastTop.8 ssm_westEastTop.8" vType="carCustom" speedFactor="0.96" vaporized=""/>
    <tripinfo id="southEast.8" depart="37.00" departLane="southJunction_0" departPos="5.10" departSpeed="11.70" departDelay="1.70" arrival="115.00" arrivalLane="junctionEast_0" arrivalPos="492.80" arrivalSpeed="26.68" duration="78.00" routeLength="989.53" waitingTime="0.00" waitingCount="0" stopTime="0.00" timeLoss="40.71" rerouteNo="0" devices="tripinfo_southEast.8 ssm_southEast.8" vType="carCustom" speedFactor="1.10" vaporized=""/>
    <tripinfo id="southNorth.3" depart="33.00" departLane="southJunction_1" departPos="5.10" departSpeed="19.79" departDelay="0.47" arrival="116.00" arrivalLane="junctionNorth_0" arrivalPos="492.80" arrivalSpeed="26.88" duration="83.00" routeLength="995.01" waitingTime="10.00" waitingCount="1" stopTime="0.00" timeLoss="46.80" rerouteNo="0" devices="tripinfo_southNorth.3 ssm_southNorth.3" vType="carCustom" speedFactor="0.95" vaporized=""/>
    <tripinfo id="westEastTop.9" depart="50.00" departLane="westJunction_1" departPos="5.10" departSpeed="11.15" departDelay="0.13" arrival="120.00" arrivalLane="junctionEast_1" arrivalPos="492.80" arrivalSpeed="27.64" duration="70.00" routeLength="994.90" waitingTime="0.00" waitingCount="0" stopTime="0.00" timeLoss="33.44" rerouteNo="0" devices="tripinfo_westEastTop.9 ssm_westEastTop.9" vType="carCustom" speedFactor="0.85" vaporized=""/>
    <tripinfo id="southEast.9" depart="42.00" departLane="southJunction_0" departPos="5.10" departSpeed="9.71" departDelay="0.05" arrival="121.00" arrivalLane="junctionEast_0" arrivalPos="492.80" arrivalSpeed="27.05" duration="79.00" routeLength="989.53" waitingTime="0.00" waitingCount="0" stopTime="0.00" timeLoss="41.88" rerouteNo="0" devices="tripinfo_southEast.9 ssm_southEast.9" vType="carCustom" speedFactor="0.92" vaporized=""/>
    <tripinfo id="southNorth.4" depart="36.00" departLane="southJunction_1" departPos="5.10" departSpeed="12.85" departDelay="0.36" arrival="123.00" arrivalLane="junctionNorth_0" arrivalPos="492.80" arrivalSpeed="27.48" duration="87.00" routeLength="995.01" waitingTime="8.00" waitingCount="2" stopTime="0.00" timeLoss="50.28" rerouteNo="0" devices="tripinfo_southNorth.4 ssm_southNorth.4" vType="carCustom" speedFactor="1.01" vaporized=""/>
    <tripinfo id="westEastTop.10" depart="54.00" departLane="westJunction_1" departPos="5.10" departSpeed="18.85" departDelay="0.97" arrival="125.00" arrivalLane="junctionEast_1" arrivalPos="492.80" arrivalSpeed="26.56" duration="71.00" routeLength="994.90" waitingTime="0.00" waitingCount="0" stopTime="0.00" timeLoss="34.92" rerouteNo="0" devices="tripinfo_westEastTop.10 ssm_westEastTop.10" vType="carCustom" speedFactor="0.94" vaporized=""/>
    <tripinfo id="westEastBottom0.4" depart="62.00" departLane="westJunction_0" departPos="5.10" departSpeed="18.36" departDelay="1.89" arrival="126.00" arrivalLane="junctionEast_0" arrivalPos="492.80" arrivalSpeed="26.82" duration="64.00" routeLength="994.90" waitingTime="0.00" waitingCount="0" stopTime="0.00" timeLoss="28.02" rerouteNo="0" devices="tripinfo_westEastBottom0.4 ssm_westEastBottom0.4" vType="carCustom" speedFactor="0.81" vaporized=""/>
    <tripinfo id="southNorth.5" depart="61.00" departLane="southJunction_1" departPos="5.10" departSpeed="13.40" departDelay="0.22" arrival="129.00" arrivalLane="junctionNorth_0" arrivalPos="492.80" arrivalSpeed="27.19" duration="68.00" routeLength="995.01" waitingTime="0.00" waitingCount="0" stopTime="0.00" timeLoss="31.40" rerouteNo="0" devices="tripinfo_southNorth.5 ssm_southNorth.5" vType="carCustom" speedFactor="0.92" vaporized=""/>
    <tripinfo id="westEastBottom0.3" depart="60.00" departLane="westJunction_0" departPos="5.10" departSpeed="17.84" departDelay="0.47" arrival="131.00" arrivalLane="junctionEast_1" arrivalPos="492.80" arrivalSpeed="27.24" duration="71.00" routeLength="994.90" waitingTime="0.00" waitingCount="0" stopTime="0.00" timeLoss="34.50" rerouteNo="0" devices="tripinfo_westEastBottom0.3 ssm_westEastBottom0.3" vType="carCustom" speedFactor="0.94" vaporized=""/>
    <tripinfo id="westEastBottom0.5" depart="65.00" departLane="westJunction_0" departPos="5.10" departSpeed="11.70" departDelay="0.40" arrival="132.00" arrivalLane="junctionEast_0" arrivalPos="492.80" arrivalSpeed="27.15" duration="67.00" routeLength="994.90" waitingTime="0.00" waitingCount="0" stopTime="0.00" timeLoss="30.37" rerouteNo="0" devices="tripinfo_westEastBottom0.5 ssm_westEastBottom0.5" vType="carCustom" speedFactor="0.93" vaporized=""/>
    <tripinfo id="southNorth.6" depart="63.00" departLane="southJunction_1" departPos="5.10" departSpeed="17.13" departDelay="1.67" arrival="135.00" arrivalLane="junctionNorth_0" arrivalPos="492.80" arrivalSpeed="27.59" duration="72.00" routeLength="995.01" waitingTime="1.00" waitingCount="1" stopTime="0.00" timeLoss="35.47" rerouteNo="0" devices="tripinfo_southNorth.6 ssm_southNorth.6" vType="carCustom" speedFactor="0.81" vaporized=""/>
    <tripinfo id="southEast.11" depart="62.00" departLane="southJunction_0" departPos="5.10" departSpeed="15.70" departDelay="0.42" arrival="137.00" arrivalLane="junctionEast_0" arrivalPos="492.80" arrivalSpeed="27.74" duration="75.00" routeLength="989.53" waitingTime="5.00" waitingCount="1" stopTime="0.00" timeLoss="38.35" rerouteNo="0" devices="tripinfo_southEast.11 ssm_southEast.11" vType="carCustom" speedFactor="1.07" vaporized=""/>
    <tripinfo id="westEastTop.11" depart="56.00" departLane="westJunction_1" departPos="5.10" departSpeed="14.91" departDelay="1.39" arrival="138.00" arrivalLane="junctionEast_1" arrivalPos="492.80" arrivalSpeed="26.54" duration="82.00" routeLength="994.90" waitingTime="3.00" waitingCount="1" stopTime="0.00" timeLoss="45.34" rerouteNo="0" devices="tripinfo_westEastTop.11 ssm_westEastTop.11" vType="carCustom" speedFactor="0.71" vaporized=""/>
    <tripinfo id="southNorth.7" depart="68.00" departLane="southJunction_1" departPos="5.10" departSpeed="17.04" departDelay="0.26" arrival="142.00" arrivalLane="junctionNorth_0" arrivalPos="492.80" arrivalSpeed="26.98" duration="74.00" routeLength="995.01" waitingTime="4.00" waitingCount="1" stopTime="0.00" timeLoss="37.48" rerouteNo="0" devices="tripinfo_southNorth.7 ssm_southNorth.7" vType="carCustom" speedFactor="0.69" vaporized=""/>
    <tripinfo id="westEastBottom0.6" depart="67.00" departLane="westJunction_0" departPos="5.10" departSpeed="10.14" departDelay="0.68" arrival="143.00" arrivalLane="junctionEast_0" arrivalPos="492.80" arrivalSpeed="27.63" duration="76.00" routeLength="994.90" waitingTime="1.00" waitingCount="1" stopTime="0.00" timeLoss="39.22" rerouteNo="0" devices="tripinfo_westEastBottom0.6 ssm_westEastBottom0.6" vType="carCustom" speedFactor="1.00" vaporized=""/>
    <tripinfo id="westEastTop.12" depart="61.00" departLane="westJunction_1" departPos="5.10" departSpeed="10.96" departDelay="0.70" arrival="146.00" arrivalLane="junctionEast_1" arrivalPos="492.80" arrivalSpeed="27.56" duration="85.00" routeLength="994.90" waitingTime="5.00" waitingCount="1" stopTime="0.00" timeLoss="48.93" rerouteNo="0" devices="tripinfo_westEastTop.12 ssm_westEastTop.12" vType="carCustom" speedFactor="0.99" vaporized=""/>
    <tripinfo id="southEast.12" depart="71.00" departLane="southJunction_0" departPos="5.10" departSpeed="14.55" departDelay="0.91" arrival="148.00" arrivalLane="junctionEast_0" arrivalPos="492.80" arrivalSpeed="26.67" duration="77.00" routeLength="989.53" waitingTime="5.00" waitingCount="1" stopTime="0.00" timeLoss="40.20" rerouteNo="0" devices="tripinfo_southEast.12 ssm_southEast.12" vType="carCustom" speedFactor="0.96" vaporized=""/>
    <tripinfo id="westEastTop.13" depart="67.00" departLane="westJunction_1" departPos="5.10" departSpeed="11.20" departDelay="0.23" arrival="152.00" arrivalLane="junctionEast_1" arrivalPos="492.80" arrivalSpeed="26.91" duration="85.00" routeLength="994.90" waitingTime="1.00" waitingCount="1" stopTime="0.00" timeLoss="49.03" rerouteNo="0" devices="tripinfo_westEastTop.13 ssm_westEastTop.13" vType="carCustom" speedFactor="1.09" vaporized=""/>
    <tripinfo id="southNorth.8" depart="72.00" departLane="southJunction_1" departPos="5.10" departSpeed="15.15" departDelay="0.17" arrival="153.00" arrivalLane="junctionNorth_0" arrivalPos="492.80" arrivalSpeed="26.58" duration="81.00" routeLength="995.01" waitingTime="8.00" waitingCount="1" stopTime="0.00" timeLoss="45.18" rerouteNo="0" devices="tripinfo_southNorth.8 ssm_southNorth.8" vType="carCustom" speedFactor="1.21" vaporized=""/>
    <tripinfo id="southEast.13" depart="75.00" departLane="southJunction_0" departPos="5.10" departSpeed="18.72" departDelay="0.11" arrival="153.00" arrivalLane="junctionEast_0" arrivalPos="492.80" arrivalSpeed="27.10" duration="78.00" routeLength="989.53" waitingTime="0.00" waitingCount="0" stopTime="0.00" timeLoss="41.52" rerouteNo="0" devices="tripinfo_southEast.13 ssm_southEast.13" vType="carCustom" speedFactor="1.03" vaporized=""/>
    <tripinfo id="southEast.14" depart="80.00" departLane="southJunction_0" departPos="5.10" departSpeed="14.55" departDelay="0.22" arrival="158.00" arrivalLane="junctionEast_0" arrivalPos="492.80" arrivalSpeed="27.55" duration="78.00" routeLength="989.53" waitingTime="0.00" waitingCount="0" stopTime="0.00" timeLoss="41.56" rerouteNo="0" devices="tripinfo_southEast.14 ssm_southEast.14" vType="carCustom" speedFactor="1.09" vaporized=""/>
    <tripinfo id="westEastTop.14" depart="72.00" departLane="westJunction_1" departPos="5.10" departSpeed="10.94" departDelay="0.44" arrival="160.00" arrivalLane="junctionEast_1" arrivalPos="492.80" arrivalSpeed="26.97" duration="88.00" routeLength="994.90" waitingTime="4.00" waitingCount="1" stopTime="0.00" timeLoss="51.48" rerouteNo="0" devices="tripinfo_westEastTop.14 ssm_westEastTop.14" vType="carCustom" speedFactor="1.06" vaporized=""/>
    <tripinfo id="southNorth.9" depart="76.00" departLane="southJunction_1" departPos="5.10" departSpeed="12.73" departDelay="0.62" arrival="160.00" arrivalLane="junctionNorth_0" arrivalPos="492.80" arrivalSpeed="26.92" duration="84.00" routeLength="995.01" waitingTime="5.00" waitingCount="1" stopTime="0.00" timeLoss="47.31" rerouteNo="0" devices="tripinfo_southNorth.9 ssm_southNorth.9" vType="carCustom" speedFactor="1.02" vaporized=""/>
    <tripinfo id="southEast.15" depart="101.00" departLane="southJunction_0" departPos="5.10" departSpeed="13.86" departDelay="0.53" arrival="164.00" arrivalLane="junctionEast_0" arrivalPos="492.80" arrivalSpeed="27.47" duration="63.00" routeLength="989.53" waitingTime="0.00" waitingCount="0" stopTime="0.00" timeLoss="25.18" rerouteNo="0" devices="tripinfo_southEast.15 ssm_southEast.15" vType="carCustom" speedFactor="1.04" vaporized=""/>
    <tripinfo id="westEastTop.15" depart="74.00" departLane="westJunction_1" departPos="5.10" departSpeed="11.75" departDelay="2.00" arrival="166.00" arrivalLane="junctionEast_1" arrivalPos="492.80" arrivalSpeed="27.09" duration="92.00" routeLength="994.90" waitingTime="0.00" waitingCount="0" stopTime="0.00" timeLoss="55.60" rerouteNo="0" devices="tripinfo_westEastTop.15 ssm_westEastTop.15" vType="carCustom" speedFactor="1.04" vaporized=""/>
    <tripinfo id="westEastTop.16" depart="76.00" departLane="westJunction_1" departPos="5.10" departSpeed="7.51" departDelay="3.20" arrival="172.00" arrivalLane="junctionEast_1" arrivalPos="492.80" arrivalSpeed="26.86" duration="96.00" routeLength="994.90" waitingTime="0.00" waitingCount="0" stopTime="0.00" timeLoss="59.47" rerouteNo="0" devices="tripinfo_westEastTop.16 ssm_westEastTop.16" vType="carCustom" speedFactor="0.79" vaporized=""/>
    <tripinfo id="southNorth.10" depart="79.00" departLane="southJunction_1" departPos="5.10" departSpeed="11.17" departDelay="0.16" arrival="177.00" arrivalLane="junctionNorth_0" arrivalPos="492.80" arrivalSpeed="27.35" duration="98.00" routeLength="995.01" waitingTime="18.00" waitingCount="2" stopTime="0.00" timeLoss="61.98" rerouteNo="0" devices="tripinfo_southNorth.10 ssm_southNorth.10" vType="carCustom" speedFactor="1.02" vaporized=""/>
    <tripinfo id="westEastBottom0.8" depart="123.00" departLane="westJunction_0" departPos="5.10" departSpeed="27.78" departDelay="0.62" arrival="177.00" arrivalLane="junctionEast_1" arrivalPos="492.80" arrivalSpeed="27.65" duration="54.00" routeLength="994.90" waitingTime="0.00" waitingCount="0" stopTime="0.00" timeLoss="17.61" rerouteNo="0" devices="tripinfo_westEastBottom0.8 ssm_westEastBottom0.8" vType="carCustom" speedFactor="0.89" vaporized=""/>
    <tripinfo id="westEastBottom0.7" depart="97.00" departLane="westJunction_0" departPos="5.10" departSpeed="14.56" departDelay="0.77" arrival="182.00" arrivalLane="junctionEast_1" arrivalPos="492.80" arrivalSpeed="26.50" duration="85.00" routeLength="994.90" waitingTime="0.00" waitingCount="0" stopTime="0.00" timeLoss="48.56" rerouteNo="0" devices="tripinfo_westEastBottom0.7 ssm_westEastBottom0.7" vType="carCustom" speedFactor="0.84" vaporized=""/>
    <tripinfo id="southEast.16" depart="126.00" departLane="southJunction_0" departPos="5.10" departSpeed="11.10" departDelay="0.27" arrival="183.00" arrivalLane="junctionEast_0" arrivalPos="492.80" arrivalSpeed="27.47" duration="57.00" routeLength="989.53" waitingTime="0.00" waitingCount="0" stopTime="0.00" timeLoss="20.08" rerouteNo="0" devices="tripinfo_southEast.16 ssm_southEast.16" vType="carCustom" speedFactor="1.01" vaporized=""/>
    <tripinfo id="southNorth.11" depart="109.00" departLane="southJunction_1" departPos="5.10" departSpeed="11.30" departDelay="0.76" arrival="184.00" arrivalLane="junctionNorth_0" arrivalPos="492.80" arrivalSpeed="27.47" duration="75.00" routeLength="995.01" waitingTime="10.00" waitingCount="1" stopTime="0.00" timeLoss="38.24" rerouteNo="0" devices="tripinfo_southNorth.11 ssm_southNorth.11" vType="carCustom" speedFactor="0.97" vaporized=""/>
    <tripinfo id="westEastTop.17" depart="101.00" departLane="westJunction_1" departPos="5.10" departSpeed="17.43" departDelay="0.96" arrival="187.00" arrivalLane="junctionEast_1" arrivalPos="492.80" arrivalSpeed="27.37" duration="86.00" routeLength="994.90" waitingTime="0.00" waitingCount="0" stopTime="0.00" timeLoss="49.45" rerouteNo="0" devices="tripinfo_westEastTop.17 ssm_westEastTop.17" vType="carCustom" speedFactor="1.01" vaporized=""/>
    <tripinfo id="westEastTop.18" depart="107.00" departLane="westJunction_1" departPos="5.10" departSpeed="14.53" departDelay="0.83" arrival="192.00" arrivalLane="junctionEast_1" arrivalPos="492.80" arrivalSpeed="26.51" duration="85.00" routeLength="994.90" waitingTime="3.00" waitingCount="1" stopTime="0.00" timeLoss="48.51" rerouteNo="0" devices="tripinfo_westEastTop.18 ssm_westEastTop.18" vType="carCustom" speedFactor="1.05" vaporized=""/>
    <tripinfo id="southEast.17" depart="135.00" departLane="southJunction_0" departPos="5.10" departSpeed="24.92" departDelay="0.99" arrival="193.00" arrivalLane="junctionEast_0" arrivalPos="492.80" arrivalSpeed="27.06" duration="58.00" routeLength="989.53" waitingTime="0.00" waitingCount="0" stopTime="0.00" timeLoss="20.91" rerouteNo="0" devices="tripinfo_southEast.17 ssm_southEast.17" vType="carCustom" speedFactor="1.07" vaporized=""/>
    <tripinfo id="westEastTop.19" depart="111.00" departLane="westJunction_1" departPos="5.10" departSpeed="14.44" departDelay="0.59" arrival="197.00" arrivalLane="junctionEast_1" arrivalPos="492.80" arrivalSpeed="26.91" duration="86.00" routeLength="994.90" waitingTime="0.00" waitingCount="0" stopTime="0.00" timeLoss="49.53" rerouteNo="0" devices="tripinfo_westEastTop.19 ssm_westEastTop.19" vType="carCustom" speedFactor="1.21" vaporized=""/>
    <tripinfo id="westEastTop.20" depart="118.00" departLane="westJunction_1" departPos="5.10" departSpeed="12.89" departDelay="0.95" arrival="202.00" arrivalLane="junctionEast_1" arrivalPos="492.80" arrivalSpeed="26.78" duration="84.00" routeLength="994.90" waitingTime="0.00" waitingCount="0" stopTime="0.00" timeLoss="47.55" rerouteNo="0" devices="tripinfo_westEastTop.20 ssm_westEastTop.20" vType="carCustom" speedFactor="0.92" vaporized=""/>
    <tripinfo id="southNorth.12" depart="111.00" departLane="southJunction_1" departPos="5.10" departSpeed="15.44" departDelay="0.05" arrival="204.00" arrivalLane="junctionNorth_0" arrivalPos="492.80" arrivalSpeed="27.07" duration="93.00" routeLength="995.01" waitingTime="20.00" waitingCount="2" stopTime="0.00" timeLoss="56.44" rerouteNo="0" devices="tripinfo_southNorth.12 ssm_southNorth.12" vType="carCustom" speedFactor="0.90" vaporized=""/>
    <tripinfo id="westEastTop.21" depart="120.00" departLane="westJunction_1" departPos="5.10" departSpeed="14.07" departDelay="1.31" arrival="204.00" arrivalLane="junctionEast_0" arrivalPos="492.80" arrivalSpeed="26.62" duration="84.00" routeLength="994.90" waitingTime="0.00" waitingCount="0" stopTime="0.00" timeLoss="47.24" rerouteNo="0" devices="tripinfo_westEastTop.21 ssm_westEastTop.21" vType="carCustom" speedFactor="0.83" vaporized=""/>
    <tripinfo id="westEastTop.22" depart="122.00" departLane="westJunction_1" departPos="5.10" departSpeed="9.70" departDelay="1.63" arrival="207.00" arrivalLane="junctionEast_1" arrivalPos="492.80" arrivalSpeed="26.57" duration="85.00" routeLength="994.90" waitingTime="0.00" waitingCount="0" stopTime="0.00" timeLoss="48.90" rerouteNo="0" devices="tripinfo_westEastTop.22 ssm_westEastTop.22" vType="carCustom" speedFactor="1.10" vaporized=""/>