<?xml version="1.0" encoding="UTF-8"?>

<!-- generated on 2025-04-29 08:42:16 by Eclipse SUMO sumo Version 1.20.0
<configuration xmlns:xsi="http://www.w3.org/2001/XMLSchema-instance" xsi:noNamespaceSchemaLocation="http://sumo.dlr.de/xsd/sumoConfiguration.xsd">

    <input>
        <net-file value="nets/2lane_unprotected_right/2lane_unprotected_right.net.xml"/>
        <route-files value="nets/2lane_unprotected_right/2lane_unprotected_right.rou.xml"/>
    </input>

    <output>
        <tripinfo-output value="traces/transs50f1_s50_f0.5_random/0172_tripinfo.xml"/>
        <collision-output value="traces/transs50f1_s50_f0.5_random/0172_collisions.xml"/>
        <statistic-output value="traces/transs50f1_s50_f0.5_random/0172_statistics.xml"/>
    </output>

    <processing>
        <collision.action value="teleport"/>
        <collision.check-junctions value="true"/>
        <time-to-teleport value="-1"/>
        <waiting-time-memory value="1000"/>
        <max-depart-delay value="-1"/>
        <default.speeddev value="0.1"/>
    </processing>

    <report>
        <no-warnings value="true"/>
    </report>

    <ssm_device>
        <device.ssm.probability value="1.0"/>
        <device.ssm.measures value="BR"/>
        <device.ssm.file value="/Users/finn/Code/CausalKnowledgeTransfer-4-SafeRL/traces/transs50f1_s50_f0.5_random/0172_ssm.xml"/>
    </ssm_device>

    <traci_server>
        <remote-port value="64536"/>
    </traci_server>

    <random_number>
        <random value="true"/>
    </random_number>

</configuration>
-->

<tripinfos xmlns:xsi="http://www.w3.org/2001/XMLSchema-instance" xsi:noNamespaceSchemaLocation="http://sumo.dlr.de/xsd/tripinfo_file.xsd">
    <tripinfo id="westEastTop.0" depart="2.00" departLane="westJunction_1" departPos="5.10" departSpeed="27.78" departDelay="0.45" arrival="39.00" arrivalLane="junctionEast_1" arrivalPos="492.80" arrivalSpeed="26.78" duration="37.00" routeLength="994.90" waitingTime="0.00" waitingCount="0" stopTime="0.00" timeLoss="1.01" rerouteNo="0" devices="tripinfo_westEastTop.0 ssm_westEastTop.0" vType="carCustom" speedFactor="1.14" vaporized=""/>
    <tripinfo id="westEastTop.1" depart="4.00" departLane="westJunction_1" departPos="5.10" departSpeed="27.32" departDelay="0.96" arrival="47.00" arrivalLane="junctionEast_1" arrivalPos="492.80" arrivalSpeed="27.31" duration="43.00" routeLength="994.90" waitingTime="0.00" waitingCount="0" stopTime="0.00" timeLoss="6.58" rerouteNo="0" devices="tripinfo_westEastTop.1 ssm_westEastTop.1" vType="carCustom" speedFactor="1.07" vaporized=""/>
    <tripinfo id="southEast.0" depart="4.00" departLane="southJunction_0" departPos="5.10" departSpeed="27.78" departDelay="0.15" arrival="52.00" arrivalLane="junctionEast_0" arrivalPos="492.80" arrivalSpeed="26.96" duration="48.00" routeLength="989.53" waitingTime="0.00" waitingCount="0" stopTime="0.00" timeLoss="11.62" rerouteNo="0" devices="tripinfo_southEast.0 ssm_southEast.0" vType="carCustom" speedFactor="1.13" vaporized=""/>
    <tripinfo id="westEastBottom0.0" depart="11.00" departLane="westJunction_0" departPos="5.10" departSpeed="27.78" departDelay="0.73" arrival="54.00" arrivalLane="junctionEast_1" arrivalPos="492.80" arrivalSpeed="26.54" duration="43.00" routeLength="994.90" waitingTime="0.00" waitingCount="0" stopTime="0.00" timeLoss="6.84" rerouteNo="0" devices="tripinfo_westEastBottom0.0 ssm_westEastBottom0.0" vType="carCustom" speedFactor="1.08" vaporized=""/>
    <tripinfo id="westEastBottom0.1" depart="13.00" departLane="westJunction_0" departPos="5.10" departSpeed="27.78" departDelay="0.38" arrival="60.00" arrivalLane="junctionEast_1" arrivalPos="492.80" arrivalSpeed="26.82" duration="47.00" routeLength="994.90" waitingTime="0.00" waitingCount="0" stopTime="0.00" timeLoss="11.06" rerouteNo="0" devices="tripinfo_westEastBottom0.1 ssm_westEastBottom0.1" vType="carCustom" speedFactor="0.96" vaporized=""/>
    <tripinfo id="southEast.1" depart="6.00" departLane="southJunction_0" departPos="5.10" departSpeed="27.32" departDelay="0.79" arrival="63.00" arrivalLane="junctionEast_0" arrivalPos="492.80" arrivalSpeed="26.70" duration="57.00" routeLength="989.53" waitingTime="1.00" waitingCount="1" stopTime="0.00" timeLoss="20.10" rerouteNo="0" devices="tripinfo_southEast.1 ssm_southEast.1" vType="carCustom" speedFactor="1.02" vaporized=""/>
    <tripinfo id="southNorth.0" depart="11.00" departLane="southJunction_1" departPos="5.10" departSpeed="27.78" departDelay="0.57" arrival="68.00" arrivalLane="junctionNorth_0" arrivalPos="492.80" arrivalSpeed="26.55" duration="57.00" routeLength="995.01" waitingTime="8.00" waitingCount="1" stopTime="0.00" timeLoss="20.86" rerouteNo="0" devices="tripinfo_southNorth.0 ssm_southNorth.0" vType="carCustom" speedFactor="0.94" vaporized=""/>
    <tripinfo id="southEast.2" depart="9.00" departLane="southJunction_0" departPos="5.10" departSpeed="19.71" departDelay="0.96" arrival="69.00" arrivalLane="junctionEast_0" arrivalPos="492.80" arrivalSpeed="27.69" duration="60.00" routeLength="989.53" waitingTime="0.00" waitingCount="0" stopTime="0.00" timeLoss="23.38" rerouteNo="0" devices="tripinfo_southEast.2 ssm_southEast.2" vType="carCustom" speedFactor="1.10" vaporized=""/>
    <tripinfo id="westEastTop.2" depart="12.00" departLane="westJunction_1" departPos="5.10" departSpeed="19.37" departDelay="0.50" arrival="73.00" arrivalLane="junctionEast_1" arrivalPos="492.80" arrivalSpeed="27.73" duration="61.00" routeLength="994.90" waitingTime="5.00" waitingCount="1" stopTime="0.00" timeLoss="24.53" rerouteNo="0" devices="tripinfo_westEastTop.2 ssm_westEastTop.2" vType="carCustom" speedFactor="0.92" vaporized=""/>
    <tripinfo id="southEast.3" depart="21.00" departLane="southJunction_0" departPos="5.10" departSpeed="17.35" departDelay="0.94" arrival="76.00" arrivalLane="junctionEast_0" arrivalPos="492.80" arrivalSpeed="27.48" duration="55.00" routeLength="989.53" waitingTime="0.00" waitingCount="0" stopTime="0.00" timeLoss="18.00" rerouteNo="0" devices="tripinfo_southEast.3 ssm_southEast.3" vType="carCustom" speedFactor="1.07" vaporized=""/>
    <tripinfo id="westEastTop.3" depart="14.00" departLane="westJunction_1" departPos="5.10" departSpeed="18.20" departDelay="1.63" arrival="79.00" arrivalLane="junctionEast_1" arrivalPos="492.80" arrivalSpeed="27.39" duration="65.00" routeLength="994.90" waitingTime="0.00" waitingCount="0" stopTime="0.00" timeLoss="28.86" rerouteNo="0" devices="tripinfo_westEastTop.3 ssm_westEastTop.3" vType="carCustom" speedFactor="1.03" vaporized=""/>
    <tripinfo id="westEastBottom0.2" depart="25.00" departLane="westJunction_0" departPos="5.10" departSpeed="23.02" departDelay="0.34" arrival="85.00" arrivalLane="junctionEast_1" arrivalPos="492.80" arrivalSpeed="26.76" duration="60.00" routeLength="994.90" waitingTime="0.00" waitingCount="0" stopTime="0.00" timeLoss="23.47" rerouteNo="0" devices="tripinfo_westEastBottom0.2 ssm_westEastBottom0.2" vType="carCustom" speedFactor="1.03" vaporized=""/>
    <tripinfo id="southEast.4" depart="24.00" departLane="southJunction_0" departPos="5.10" departSpeed="22.68" departDelay="0.12" arrival="86.00" arrivalLane="junctionEast_0" arrivalPos="492.80" arrivalSpeed="26.94" duration="62.00" routeLength="989.53" waitingTime="0.00" waitingCount="0" stopTime="0.00" timeLoss="24.47" rerouteNo="0" devices="tripinfo_southEast.4 ssm_southEast.4" vType="carCustom" speedFactor="0.94" vaporized=""/>
    <tripinfo id="westEastTop.4" depart="19.00" departLane="westJunction_1" departPos="5.10" departSpeed="10.50" departDelay="0.29" arrival="90.00" arrivalLane="junctionEast_1" arrivalPos="492.80" arrivalSpeed="27.65" duration="71.00" routeLength="994.90" waitingTime="0.00" waitingCount="0" stopTime="0.00" timeLoss="34.92" rerouteNo="0" devices="tripinfo_westEastTop.4 ssm_westEastTop.4" vType="carCustom" speedFactor="1.02" vaporized=""/>
    <tripinfo id="westEastTop.5" depart="26.00" departLane="westJunction_1" departPos="5.10" departSpeed="12.18" departDelay="0.14" arrival="95.00" arrivalLane="junctionEast_1" arrivalPos="492.80" arrivalSpeed="27.31" duration="69.00" routeLength="994.90" waitingTime="0.00" waitingCount="0" stopTime="0.00" timeLoss="33.18" rerouteNo="0" devices="tripinfo_westEastTop.5 ssm_westEastTop.5" vType="carCustom" speedFactor="1.05" vaporized=""/>
    <tripinfo id="southEast.5" depart="26.00" departLane="southJunction_0" departPos="5.10" departSpeed="17.86" departDelay="0.94" arrival="101.00" arrivalLane="junctionEast_1" arrivalPos="492.80" arrivalSpeed="26.67" duration="75.00" routeLength="989.53" waitingTime="4.00" waitingCount="1" stopTime="0.00" timeLoss="37.93" rerouteNo="0" devices="tripinfo_southEast.5 ssm_southEast.5" vType="carCustom" speedFactor="1.08" vaporized=""/>
    <tripinfo id="westEastTop.6" depart="28.00" departLane="westJunction_1" departPos="5.10" departSpeed="13.52" departDelay="0.14" arrival="105.00" arrivalLane="junctionEast_1" arrivalPos="492.80" arrivalSpeed="26.93" duration="77.00" routeLength="994.90" waitingTime="0.00" waitingCount="0" stopTime="0.00" timeLoss="41.06" rerouteNo="0" devices="tripinfo_westEastTop.6 ssm_westEastTop.6" vType="carCustom" speedFactor="1.23" vaporized=""/>
    <tripinfo id="westEastBottom0.3" depart="49.00" departLane="westJunction_0" departPos="5.10" departSpeed="27.78" departDelay="0.28" arrival="106.00" arrivalLane="junctionEast_0" arrivalPos="492.80" arrivalSpeed="27.01" duration="57.00" routeLength="994.90" waitingTime="0.00" waitingCount="0" stopTime="0.00" timeLoss="20.39" rerouteNo="0" devices="tripinfo_westEastBottom0.3 ssm_westEastBottom0.3" vType="carCustom" speedFactor="1.21" vaporized=""/>
    <tripinfo id="westEastTop.7" depart="38.00" departLane="westJunction_1" departPos="5.10" departSpeed="12.37" departDelay="0.45" arrival="110.00" arrivalLane="junctionEast_1" arrivalPos="492.80" arrivalSpeed="27.20" duration="72.00" routeLength="994.90" waitingTime="0.00" waitingCount="0" stopTime="0.00" timeLoss="35.83" rerouteNo="0" devices="tripinfo_westEastTop.7 ssm_westEastTop.7" vType="carCustom" speedFactor="1.06" vaporized=""/>
    <tripinfo id="southEast.6" depart="39.00" departLane="southJunction_0" departPos="5.10" departSpeed="15.02" departDelay="0.35" arrival="111.00" arrivalLane="junctionEast_0" arrivalPos="492.80" arrivalSpeed="27.32" duration="72.00" routeLength="989.53" waitingTime="5.00" waitingCount="1" stopTime="0.00" timeLoss="35.25" rerouteNo="0" devices="tripinfo_southEast.6 ssm_southEast.6" vType="carCustom" speedFactor="1.01" vaporized=""/>
    <tripinfo id="southNorth.1" depart="27.00" departLane="southJunction_1" departPos="5.10" departSpeed="20.41" departDelay="0.07" arrival="115.00" arrivalLane="junctionNorth_0" arrivalPos="492.80" arrivalSpeed="27.31" duration="88.00" routeLength="995.01" waitingTime="36.00" waitingCount="1" stopTime="0.00" timeLoss="51.30" rerouteNo="0" devices="tripinfo_southNorth.1 ssm_southNorth.1" vType="carCustom" speedFactor="0.89" vaporized=""/>
    <tripinfo id="westEastTop.8" depart="40.00" departLane="westJunction_1" departPos="5.10" departSpeed="16.36" departDelay="0.19" arrival="115.00" arrivalLane="junctionEast_1" arrivalPos="492.80" arrivalSpeed="27.11" duration="75.00" routeLength="994.90" waitingTime="0.00" waitingCount="0" stopTime="0.00" timeLoss="38.52" rerouteNo="0" devices="tripinfo_westEastTop.8 ssm_westEastTop.8" vType="carCustom" speedFactor="1.07" vaporized=""/>
    <tripinfo id="southEast.7" depart="53.00" departLane="southJunction_0" departPos="5.10" departSpeed="16.98" departDelay="0.75" arrival="116.00" arrivalLane="junctionEast_0" arrivalPos="492.80" arrivalSpeed="27.35" duration="63.00" routeLength="989.53" waitingTime="0.00" waitingCount="0" stopTime="0.00" timeLoss="25.78" rerouteNo="0" devices="tripinfo_southEast.7 ssm_southEast.7" vType="carCustom" speedFactor="1.07" vaporized=""/>
    <tripinfo id="westEastBottom0.4" depart="52.00" departLane="westJunction_0" departPos="5.10" departSpeed="24.23" departDelay="0.63" arrival="120.00" arrivalLane="junctionEast_1" arrivalPos="492.80" arrivalSpeed="27.11" duration="68.00" routeLength="994.90" waitingTime="0.00" waitingCount="0" stopTime="0.00" timeLoss="31.36" rerouteNo="0" devices="tripinfo_westEastBottom0.4 ssm_westEastBottom0.4" vType="carCustom" speedFactor="0.88" vaporized=""/>
    <tripinfo id="westEastTop.9" depart="44.00" departLane="westJunction_1" departPos="5.10" departSpeed="11.04" departDelay="0.18" arrival="124.00" arrivalLane="junctionEast_1" arrivalPos="492.80" arrivalSpeed="26.74" duration="80.00" routeLength="994.90" waitingTime="0.00" waitingCount="0" stopTime="0.00" timeLoss="44.19" rerouteNo="0" devices="tripinfo_westEastTop.9 ssm_westEastTop.9" vType="carCustom" speedFactor="1.09" vaporized=""/>
    <tripinfo id="southNorth.2" depart="29.00" departLane="southJunction_1" departPos="5.10" departSpeed="24.12" departDelay="1.52" arrival="125.00" arrivalLane="junctionNorth_0" arrivalPos="492.80" arrivalSpeed="26.94" duration="96.00" routeLength="995.01" waitingTime="32.00" waitingCount="2" stopTime="0.00" timeLoss="59.75" rerouteNo="0" devices="tripinfo_southNorth.2 ssm_southNorth.2" vType="carCustom" speedFactor="1.08" vaporized=""/>
    <tripinfo id="westEastBottom0.5" depart="58.00" departLane="westJunction_0" departPos="5.10" departSpeed="16.17" departDelay="0.71" arrival="129.00" arrivalLane="junctionEast_1" arrivalPos="492.80" arrivalSpeed="26.72" duration="71.00" routeLength="994.90" waitingTime="2.00" waitingCount="1" stopTime="0.00" timeLoss="34.77" rerouteNo="0" devices="tripinfo_westEastBottom0.5 ssm_westEastBottom0.5" vType="carCustom" speedFactor="0.98" vaporized=""/>
    <tripinfo id="southEast.8" depart="64.00" departLane="southJunction_0" departPos="5.10" departSpeed="21.82" departDelay="0.24" arrival="130.00" arrivalLane="junctionEast_0" arrivalPos="492.80" arrivalSpeed="27.46" duration="66.00" routeLength="989.53" waitingTime="5.00" waitingCount="1" stopTime="0.00" timeLoss="29.22" rerouteNo="0" devices="tripinfo_southEast.8 ssm_southEast.8" vType="carCustom" speedFactor="1.04" vaporized=""/>
    <tripinfo id="southEast.12" depart="89.00" departLane="southJunction_0" departPos="5.10" departSpeed="17.54" departDelay="0.69" arrival="132.00" arrivalLane="junctionEast_0" arrivalPos="492.80" arrivalSpeed="5.55" duration="43.00" routeLength="989.53" waitingTime="3.00" waitingCount="1" stopTime="0.00" timeLoss="24.45" rerouteNo="0" devices="tripinfo_southEast.12 ssm_southEast.12" vType="carCustom" speedFactor="0.90" vaporized="teleport"/>
    <tripinfo id="westEastTop.10" depart="46.00" departLane="westJunction_1" departPos="5.10" departSpeed="9.84" departDelay="0.19" arrival="134.00" arrivalLane="junctionEast_1" arrivalPos="492.80" arrivalSpeed="27.40" duration="88.00" routeLength="994.90" waitingTime="1.00" waitingCount="1" stopTime="0.00" timeLoss="51.53" rerouteNo="0" devices="tripinfo_westEastTop.10 ssm_westEastTop.10" vType="carCustom" speedFactor="0.88" vaporized=""/>
    <tripinfo id="southNorth.3" depart="52.00" departLane="southJunction_1" departPos="5.10" departSpeed="13.02" departDelay="0.77" arrival="135.00" arrivalLane="junctionNorth_0" arrivalPos="492.80" arrivalSpeed="27.36" duration="83.00" routeLength="995.01" waitingTime="17.00" waitingCount="3" stopTime="0.00" timeLoss="46.23" rerouteNo="0" devices="tripinfo_southNorth.3 ssm_southNorth.3" vType="carCustom" speedFactor="0.96" vaporized=""/>
    <tripinfo id="southEast.9" depart="66.00" departLane="southJunction_0" departPos="5.10" departSpeed="22.37" departDelay="1.70" arrival="135.00" arrivalLane="junctionEast_0" arrivalPos="492.80" arrivalSpeed="27.00" duration="69.00" routeLength="989.53" waitingTime="0.00" waitingCount="0" stopTime="0.00" timeLoss="31.89" rerouteNo="0" devices="tripinfo_southEast.9 ssm_southEast.9" vType="carCustom" speedFactor="0.94" vaporized=""/>
    <tripinfo id="westEastTop.11" depart="49.00" departLane="westJunction_1" departPos="5.10" departSpeed="7.81" departDelay="2.84" arrival="139.00" arrivalLane="junctionEast_1" arrivalPos="492.80" arrivalSpeed="26.66" duration="90.00" routeLength="994.90" waitingTime="4.00" waitingCount="1" stopTime="0.00" timeLoss="53.35" rerouteNo="0" devices="tripinfo_westEastTop.11 ssm_westEastTop.11" vType="carCustom" speedFactor="0.86" vaporized=""/>
    <tripinfo id="westEastBottom0.6" depart="60.00" departLane="westJunction_0" departPos="5.10" departSpeed="15.62" departDelay="0.95" arrival="140.00" arrivalLane="junctionEast_0" arrivalPos="492.80" arrivalSpeed="26.57" duration="80.00" routeLength="994.90" waitingTime="3.00" waitingCount="1" stopTime="0.00" timeLoss="43.94" rerouteNo="0" devices="tripinfo_westEastBottom0.6 ssm_westEastBottom0.6" vType="carCustom" speedFactor="1.03" vaporized=""/>
    <tripinfo id="southNorth.4" depart="55.00" departLane="southJunction_1" departPos="5.10" departSpeed="18.11" departDelay="0.89" arrival="141.00" arrivalLane="junctionNorth_0" arrivalPos="492.80" arrivalSpeed="27.66" duration="86.00" routeLength="995.01" waitingTime="6.00" waitingCount="3" stopTime="0.00" timeLoss="49.26" rerouteNo="0" devices="tripinfo_southNorth.4 ssm_southNorth.4" vType="carCustom" speedFactor="0.91" vaporized=""/>
    <tripinfo id="westEastTop.12" depart="53.00" departLane="westJunction_1" departPos="5.10" departSpeed="6.67" departDelay="0.39" arrival="144.00" arrivalLane="junctionEast_1" arrivalPos="492.80" arrivalSpeed="27.55" duration="91.00" routeLength="994.90" waitingTime="5.00" waitingCount="1" stopTime="0.00" timeLoss="54.66" rerouteNo="0" devices="tripinfo_westEastTop.12 ssm_westEastTop.12" vType="carCustom" speedFactor="1.08" vaporized=""/>
    <tripinfo id="southEast.10" depart="68.00" departLane="southJunction_0" departPos="5.10" departSpeed="17.04" departDelay="2.76" arrival="145.00" arrivalLane="junctionEast_0" arrivalPos="492.80" arrivalSpeed="27.32" duration="77.00" routeLength="989.53" waitingTime="0.00" waitingCount="0" stopTime="0.00" timeLoss="39.46" rerouteNo="0" devices="tripinfo_southEast.10 ssm_southEast.10" vType="carCustom" speedFactor="1.07" vaporized=""/>
    <tripinfo id="southNorth.5" depart="59.00" departLane="southJunction_1" departPos="5.10" departSpeed="15.51" departDelay="0.85" arrival="147.00" arrivalLane="junctionNorth_0" arrivalPos="492.80" arrivalSpeed="27.09" duration="88.00" routeLength="995.01" waitingTime="4.00" waitingCount="3" stopTime="0.00" timeLoss="51.41" rerouteNo="0" devices="tripinfo_southNorth.5 ssm_southNorth.5" vType="carCustom" speedFactor="1.01" vaporized=""/>
    <tripinfo id="westEastTop.13" depart="61.00" departLane="westJunction_1" departPos="5.10" departSpeed="8.35" departDelay="0.86" arrival="149.00" arrivalLane="junctionEast_1" arrivalPos="492.80" arrivalSpeed="26.60" duration="88.00" routeLength="994.90" waitingTime="2.00" waitingCount="1" stopTime="0.00" timeLoss="51.90" rerouteNo="0" devices="tripinfo_westEastTop.13 ssm_westEastTop.13" vType="carCustom" speedFactor="1.08" vaporized=""/>
    <tripinfo id="westEastBottom0.7" depart="64.00" departLane="westJunction_0" departPos="5.10" departSpeed="11.84" departDelay="0.39" arrival="150.00" arrivalLane="junctionEast_0" arrivalPos="492.80" arrivalSpeed="26.69" duration="86.00" routeLength="994.90" waitingTime="2.00" waitingCount="1" stopTime="0.00" timeLoss="49.79" rerouteNo="0" devices="tripinfo_westEastBottom0.7 ssm_westEastBottom0.7" vType="carCustom" speedFactor="1.11" vaporized=""/>
    <tripinfo id="southNorth.6" depart="71.00" departLane="southJunction_1" departPos="5.10" departSpeed="16.22" departDelay="0.39" arrival="152.00" arrivalLane="junctionNorth_0" arrivalPos="492.80" arrivalSpeed="26.52" duration="81.00" routeLength="995.01" waitingTime="1.00" waitingCount="1" stopTime="0.00" timeLoss="44.99" rerouteNo="0" devices="tripinfo_southNorth.6 ssm_southNorth.6" vType="carCustom" speedFactor="0.94" vaporized=""/>
    <tripinfo id="southEast.11" depart="83.00" departLane="southJunction_0" departPos="5.10" departSpeed="13.60" departDelay="0.44" arrival="154.00" arrivalLane="junctionEast_1" arrivalPos="492.80" arrivalSpeed="26.64" duration="71.00" routeLength="989.53" waitingTime="2.00" waitingCount="1" stopTime="0.00" timeLoss="34.28" rerouteNo="0" devices="tripinfo_southEast.11 ssm_southEast.11" vType="carCustom" speedFactor="1.09" vaporized=""/>
    <tripinfo id="westEastBottom0.8" depart="82.00" departLane="westJunction_0" departPos="5.10" departSpeed="13.81" departDelay="0.70" arrival="155.00" arrivalLane="junctionEast_0" arrivalPos="492.80" arrivalSpeed="27.70" duration="73.00" routeLength="994.90" waitingTime="0.00" waitingCount="0" stopTime="0.00" timeLoss="36.55" rerouteNo="0" devices="tripinfo_westEastBottom0.8 ssm_westEastBottom0.8" vType="carCustom" speedFactor="0.99" vaporized=""/>
    <tripinfo id="westEastTop.14" depart="64.00" departLane="westJunction_1" departPos="5.10" departSpeed="10.87" departDelay="0.18" arrival="159.00" arrivalLane="junctionEast_1" arrivalPos="492.80" arrivalSpeed="26.53" duration="95.00" routeLength="994.90" waitingTime="2.00" waitingCount="1" stopTime="0.00" timeLoss="59.02" rerouteNo="0" devices="tripinfo_westEastTop.14 ssm_westEastTop.14" vType="carCustom" speedFactor="0.98" vaporized=""/>
    <tripinfo id="westEastBottom0.9" depart="84.00" departLane="westJunction_0" departPos="5.10" departSpeed="17.60" departDelay="0.04" arrival="160.00" arrivalLane="junctionEast_0" arrivalPos="492.80" arrivalSpeed="27.34" duration="76.00" routeLength="994.90" waitingTime="0.00" waitingCount="0" stopTime="0.00" timeLoss="39.46" rerouteNo="0" devices="tripinfo_westEastBottom0.9 ssm_westEastBottom0.9" vType="carCustom" speedFactor="1.12" vaporized=""/>
    <tripinfo id="southNorth.7" depart="73.00" departLane="southJunction_1" departPos="5.10" departSpeed="20.41" departDelay="1.66" arrival="163.00" arrivalLane="junctionNorth_0" arrivalPos="492.80" arrivalSpeed="27.07" duration="90.00" routeLength="995.01" waitingTime="10.00" waitingCount="1" stopTime="0.00" timeLoss="54.06" rerouteNo="0" devices="tripinfo_southNorth.7 ssm_southNorth.7" vType="carCustom" speedFactor="1.06" vaporized=""/>
    <tripinfo id="westEastTop.15" depart="66.00" departLane="westJunction_1" departPos="5.10" departSpeed="8.46" departDelay="1.70" arrival="164.00" arrivalLane="junctionEast_1" arrivalPos="492.80" arrivalSpeed="26.66" duration="98.00" routeLength="994.90" waitingTime="0.00" waitingCount="0" stopTime="0.00" timeLoss="61.92" rerouteNo="0" devices="tripinfo_westEastTop.15 ssm_westEastTop.15" vType="carCustom" speedFactor="0.99" vaporized=""/>
    <tripinfo id="westEastBottom0.10" depart="95.00" departLane="westJunction_0" departPos="5.10" departSpeed="15.23" departDelay="0.96" arrival="165.00" arrivalLane="junctionEast_0" arrivalPos="492.80" arrivalSpeed="26.80" duration="70.00" routeLength="994.90" waitingTime="0.00" waitingCount="0" stopTime="0.00" timeLoss="33.38" rerouteNo="0" devices="tripinfo_westEastBottom0.10 ssm_westEastBottom0.10" vType="carCustom" speedFactor="1.08" vaporized=""/>
    <tripinfo id="westEastTop.16" depart="69.00" departLane="westJunction_1" departPos="5.10" departSpeed="6.18" departDelay="3.10" arrival="169.00" arrivalLane="junctionEast_1" arrivalPos="492.80" arrivalSpeed="27.39" duration="100.00" routeLength="994.90" waitingTime="0.00" waitingCount="0" stopTime="0.00" timeLoss="63.98" rerouteNo="0" devices="tripinfo_westEastTop.16 ssm_westEastTop.16" vType="carCustom" speedFactor="0.96" vaporized=""/>
    <tripinfo id="southEast.13" depart="104.00" departLane="southJunction_0" departPos="5.10" departSpeed="16.79" departDelay="0.67" arrival="170.00" arrivalLane="junctionEast_0" arrivalPos="492.80" arrivalSpeed="27.61" duration="66.00" routeLength="989.53" waitingTime="0.00" waitingCount="0" stopTime="0.00" timeLoss="28.83" rerouteNo="0" devices="tripinfo_southEast.13 ssm_southEast.13" vType="carCustom" speedFactor="0.90" vaporized=""/>
    <tripinfo id="westEastBottom0.16" depart="131.00" departLane="westJunction_0" departPos="5.10" departSpeed="11.84" departDelay="2.04" arrival="172.00" arrivalLane="junctionEast_0" arrivalPos="492.80" arrivalSpeed="10.40" duration="41.00" routeLength="994.90" waitingTime="0.00" waitingCount="0" stopTime="0.00" timeLoss="22.57" rerouteNo="0" devices="tripinfo_westEastBottom0.16 ssm_westEastBottom0.16" vType="carCustom" speedFactor="1.25" vaporized="teleport"/>
    <tripinfo id="southNorth.8" depart="80.00" departLane="southJunction_1" departPos="5.10" departSpeed="15.71" departDelay="0.32" arrival="173.00" arrivalLane="junctionNorth_0" arrivalPos="492.80" arrivalSpeed="27.77" duration="93.00" routeLength="995.01" waitingTime="12.00" waitingCount="2" stopTime="0.00" timeLoss="56.28" rerouteNo="0" devices="tripinfo_southNorth.8 ssm_southNorth.8" vType="carCustom" speedFactor="0.97" vaporized=""/>
    <tripinfo id="westEastTop.17" depart="72.00" departLane="westJunction_1" departPos="5.10" departSpeed="6.28" departDelay="2.92" arrival="174.00" arrivalLane="junctionEast_1" arrivalPos="492.80" arrivalSpeed="27.41" duration="102.00" routeLength="994.90" waitingTime="0.00" waitingCount="0" stopTime="0.00" timeLoss="65.77" rerouteNo="0" devices="tripinfo_westEastTop.17 ssm_westEastTop.17" vType="carCustom" speedFactor="0.99" vaporized=""/>
    <tripinfo id="westEastBottom0.12" depart="110.00" departLane="westJunction_0" departPos="5.10" departSpeed="17.39" departDelay="0.23" arrival="175.00" arrivalLane="junctionEast_0" arrivalPos="492.80" arrivalSpeed="26.86" duration="65.00" routeLength="994.90" waitingTime="1.00" waitingCount="1" stopTime="0.00" timeLoss="28.48" rerouteNo="0" devices="tripinfo_westEastBottom0.12 ssm_westEastBottom0.12" vType="carCustom" speedFactor="1.04" vaporized=""/>
    <tripinfo id="westEastTop.18" depart="78.00" departLane="westJunction_1" departPos="5.10" departSpeed="5.43" departDelay="0.64" arrival="179.00" arrivalLane="junctionEast_1" arrivalPos="492.80" arrivalSpeed="27.62" duration="101.00" routeLength="994.90" waitingTime="1.00" waitingCount="1" stopTime="0.00" timeLoss="64.72" rerouteNo="0" devices="tripinfo_westEastTop.18 ssm_westEastTop.18" vType="carCustom" speedFactor="0.95" vaporized=""/>
    <tripinfo id="southEast.14" depart="119.00" departLane="southJunction_0" departPos="5.10" departSpeed="18.88" departDelay="0.64" arrival="180.00" arrivalLane="junctionEast_0" arrivalPos="492.80" arrivalSpeed="26.73" duration="61.00" routeLength="989.53" waitingTime="0.00" waitingCount="0" stopTime="0.00" timeLoss="24.07" rerouteNo="0" devices="tripinfo_southEast.14 ssm_southEast.14" vType="carCustom" speedFactor="0.96" vaporized=""/>
    <tripinfo id="westEastTop.19" depart="81.00" departLane="westJunction_1" departPos="5.10" departSpeed="7.28" departDelay="2.12" arrival="184.00" arrivalLane="junctionEast_1" arrivalPos="492.80" arrivalSpeed="27.71" duration="103.00" routeLength="994.90" waitingTime="0.00" waitingCount="0" stopTime="0.00" timeLoss="66.65" rerouteNo="0" devices="tripinfo_westEastTop.19 ssm_westEastTop.19" vType="carCustom" speedFactor="1.09" vaporized=""/>
    <tripinfo id="westEastBottom0.13" depart="116.00" departLane="westJunction_0" departPos="5.10" departSpeed="18.25" departDelay="0.18" arrival="185.00" arrivalLane="junctionEast_0" arrivalPos="492.80" arrivalSpeed="26.93" duration="69.00" routeLength="994.90" waitingTime="2.00" waitingCount="1" stopTime="0.00" timeLoss="32.79" rerouteNo="0" devices="tripinfo_westEastBottom0.13 ssm_westEastBottom0.13" vType="carCustom" speedFactor="1.07" vaporized=""/>
    <tripinfo id="westEastBottom0.11" depart="105.00" departLane="westJunction_0" departPos="5.10" departSpeed="18.19" departDelay="0.50" arrival="189.00" arrivalLane="junctionEast_1" arrivalPos="492.80" arrivalSpeed="27.48" duration="84.00" routeLength="994.90" waitingTime="1.00" waitingCount="1" stopTime="0.00" timeLoss="47.57" rerouteNo="0" devices="tripinfo_westEastBottom0.11 ssm_westEastBottom0.11" vType="carCustom" speedFactor="1.18" vaporized=""/>
    <tripinfo id="westEastBottom0.14" depart="127.00" departLane="westJunction_0" departPos="5.10" departSpeed="16.77" departDelay="0.37" arrival="190.00" arrivalLane="junctionEast_0" arrivalPos="492.80" arrivalSpeed="27.67" duration="63.00" routeLength="994.90" waitingTime="0.00" waitingCount="0" stopTime="0.00" timeLoss="26.90" rerouteNo="0" devices="tripinfo_westEastBottom0.14 ssm_westEastBottom0.14" vType="carCustom" speedFactor="0.95" vaporized=""/>
    <tripinfo id="westEastTop.20" depart="109.00" departLane="westJunction_1" departPos="5.10" departSpeed="18.20" departDelay="0.25" arrival="194.00" arrivalLane="junctionEast_1" arrivalPos="492.80" arrivalSpeed="27.65" duration="85.00" routeLength="994.90" waitingTime="0.00" waitingCount="0" stopTime="0.00" timeLoss="48.35" rerouteNo="0" devices="tripinfo_westEastTop.20 ssm_westEastTop.20" vType="carCustom" speedFactor="1.16" vaporized=""/>
    <tripinfo id="westEastBottom0.15" depart="129.00" departLane="westJunction_0" departPos="5.10" departSpeed="16.71" departDelay="1.92" arrival="195.00" arrivalLane="junctionEast_0" arrivalPos="492.80" arrivalSpeed="27.09" duration="66.00" routeLength="994.90" waitingTime="0.00" waitingCount="0" stopTime="0.00" timeLoss="29.97" rerouteNo="0" devices="tripinfo_westEastBottom0.15 ssm_westEastBottom0.15" vType="carCustom" speedFactor="0.95" vaporized=""/>
    <tripinfo id="southNorth.9" depart="111.00" departLane="southJunction_1" departPos="5.10" departSpeed="6.31" departDelay="0.66" arrival="199.00" arrivalLane="junctionNorth_0" arrivalPos="492.80" arrivalSpeed="27.65" duration="88.00" routeLength="995.01" waitingTime="23.00" waitingCount="2" stopTime="0.00" timeLoss="51.29" rerouteNo="0" devices="tripinfo_southNorth.9 ssm_southNorth.9" vType="carCustom" speedFactor="1.10" vaporized=""/>