<?xml version="1.0" encoding="UTF-8"?>

<!-- generated on 2025-04-29 08:47:07 by Eclipse SUMO sumo Version 1.20.0
<configuration xmlns:xsi="http://www.w3.org/2001/XMLSchema-instance" xsi:noNamespaceSchemaLocation="http://sumo.dlr.de/xsd/sumoConfiguration.xsd">

    <input>
        <net-file value="nets/2lane_unprotected_right/2lane_unprotected_right.net.xml"/>
        <route-files value="nets/2lane_unprotected_right/2lane_unprotected_right.rou.xml"/>
    </input>

    <output>
        <tripinfo-output value="traces/transs50f1_s50_f0.5_random/0176_tripinfo.xml"/>
        <collision-output value="traces/transs50f1_s50_f0.5_random/0176_collisions.xml"/>
        <statistic-output value="traces/transs50f1_s50_f0.5_random/0176_statistics.xml"/>
    </output>

    <processing>
        <collision.action value="teleport"/>
        <collision.check-junctions value="true"/>
        <time-to-teleport value="-1"/>
        <waiting-time-memory value="1000"/>
        <max-depart-delay value="-1"/>
        <default.speeddev value="0.1"/>
    </processing>

    <report>
        <no-warnings value="true"/>
    </report>

    <ssm_device>
        <device.ssm.probability value="1.0"/>
        <device.ssm.measures value="BR"/>
        <device.ssm.file value="/Users/finn/Code/CausalKnowledgeTransfer-4-SafeRL/traces/transs50f1_s50_f0.5_random/0176_ssm.xml"/>
    </ssm_device>

    <traci_server>
        <remote-port value="64584"/>
    </traci_server>

    <random_number>
        <random value="true"/>
    </random_number>

</configuration>
-->

<tripinfos xmlns:xsi="http://www.w3.org/2001/XMLSchema-instance" xsi:noNamespaceSchemaLocation="http://sumo.dlr.de/xsd/tripinfo_file.xsd">
    <tripinfo id="westEastBottom0.1" depart="34.00" departLane="westJunction_0" departPos="5.10" departSpeed="8.18" departDelay="0.23" arrival="101.00" arrivalLane="junctionEast_0" arrivalPos="492.80" arrivalSpeed="4.71" duration="67.00" routeLength="994.90" waitingTime="0.00" waitingCount="0" stopTime="0.00" timeLoss="6.17" rerouteNo="0" devices="tripinfo_westEastBottom0.1 ssm_westEastBottom0.1" vType="carCustom" speedFactor="0.92" vaporized="teleport"/>
    <tripinfo id="southEast.0" depart="1.00" departLane="southJunction_0" departPos="5.10" departSpeed="8.33" departDelay="0.39" arrival="132.00" arrivalLane="junctionEast_0" arrivalPos="492.80" arrivalSpeed="7.93" duration="131.00" routeLength="989.53" waitingTime="0.00" waitingCount="0" stopTime="0.00" timeLoss="11.87" rerouteNo="0" devices="tripinfo_southEast.0 ssm_southEast.0" vType="carCustom" speedFactor="1.04" vaporized=""/>
    <tripinfo id="westEastTop.0" depart="3.00" departLane="westJunction_1" departPos="5.10" departSpeed="8.33" departDelay="0.62" arrival="133.00" arrivalLane="junctionEast_0" arrivalPos="492.80" arrivalSpeed="8.05" duration="130.00" routeLength="994.90" waitingTime="0.00" waitingCount="0" stopTime="0.00" timeLoss="9.97" rerouteNo="0" devices="tripinfo_westEastTop.0 ssm_westEastTop.0" vType="carCustom" speedFactor="0.81" vaporized=""/>
    <tripinfo id="westEastTop.1" depart="7.00" departLane="westJunction_1" departPos="5.10" departSpeed="8.11" departDelay="0.03" arrival="140.00" arrivalLane="junctionEast_0" arrivalPos="492.80" arrivalSpeed="8.12" duration="133.00" routeLength="994.90" waitingTime="0.00" waitingCount="0" stopTime="0.00" timeLoss="12.87" rerouteNo="0" devices="tripinfo_westEastTop.1 ssm_westEastTop.1" vType="carCustom" speedFactor="0.93" vaporized=""/>
    <tripinfo id="westEastTop.2" depart="10.00" departLane="westJunction_1" departPos="5.10" departSpeed="5.45" departDelay="0.26" arrival="147.00" arrivalLane="junctionEast_0" arrivalPos="492.80" arrivalSpeed="7.86" duration="137.00" routeLength="994.90" waitingTime="0.00" waitingCount="0" stopTime="0.00" timeLoss="17.11" rerouteNo="0" devices="tripinfo_westEastTop.2 ssm_westEastTop.2" vType="carCustom" speedFactor="0.90" vaporized=""/>
    <tripinfo id="westEastTop.3" depart="18.00" departLane="westJunction_1" departPos="5.10" departSpeed="6.04" departDelay="0.04" arrival="153.00" arrivalLane="junctionEast_1" arrivalPos="492.80" arrivalSpeed="7.51" duration="135.00" routeLength="994.90" waitingTime="0.00" waitingCount="0" stopTime="0.00" timeLoss="15.33" rerouteNo="0" devices="tripinfo_westEastTop.3 ssm_westEastTop.3" vType="carCustom" speedFactor="1.03" vaporized=""/>
    <tripinfo id="westEastBottom0.0" depart="18.00" departLane="westJunction_0" departPos="5.10" departSpeed="8.33" departDelay="0.26" arrival="154.00" arrivalLane="junctionEast_0" arrivalPos="492.80" arrivalSpeed="8.07" duration="136.00" routeLength="994.90" waitingTime="0.00" waitingCount="0" stopTime="0.00" timeLoss="15.64" rerouteNo="0" devices="tripinfo_westEastBottom0.0 ssm_westEastBottom0.0" vType="carCustom" speedFactor="1.13" vaporized=""/>
    <tripinfo id="southEast.1" depart="19.00" departLane="southJunction_0" departPos="5.10" departSpeed="7.85" departDelay="0.98" arrival="160.00" arrivalLane="junctionEast_0" arrivalPos="492.80" arrivalSpeed="7.23" duration="141.00" routeLength="989.53" waitingTime="0.00" waitingCount="0" stopTime="0.00" timeLoss="21.69" rerouteNo="0" devices="tripinfo_southEast.1 ssm_southEast.1" vType="carCustom" speedFactor="0.92" vaporized=""/>
    <tripinfo id="westEastTop.4" depart="21.00" departLane="westJunction_1" departPos="5.10" departSpeed="5.74" departDelay="1.76" arrival="160.00" arrivalLane="junctionEast_1" arrivalPos="492.80" arrivalSpeed="7.76" duration="139.00" routeLength="994.90" waitingTime="0.00" waitingCount="0" stopTime="0.00" timeLoss="19.52" rerouteNo="0" devices="tripinfo_westEastTop.4 ssm_westEastTop.4" vType="carCustom" speedFactor="0.98" vaporized=""/>
    <tripinfo id="southEast.2" depart="21.00" departLane="southJunction_0" departPos="5.10" departSpeed="7.50" departDelay="2.79" arrival="167.00" arrivalLane="junctionEast_0" arrivalPos="492.80" arrivalSpeed="7.74" duration="146.00" routeLength="989.53" waitingTime="0.00" waitingCount="0" stopTime="0.00" timeLoss="26.39" rerouteNo="0" devices="tripinfo_southEast.2 ssm_southEast.2" vType="carCustom" speedFactor="0.98" vaporized=""/>
    <tripinfo id="westEastTop.5" depart="24.00" departLane="westJunction_1" departPos="5.10" departSpeed="4.42" departDelay="3.05" arrival="167.00" arrivalLane="junctionEast_1" arrivalPos="492.80" arrivalSpeed="7.76" duration="143.00" routeLength="994.90" waitingTime="0.00" waitingCount="0" stopTime="0.00" timeLoss="23.35" rerouteNo="0" devices="tripinfo_westEastTop.5 ssm_westEastTop.5" vType="carCustom" speedFactor="0.97" vaporized=""/>
    <tripinfo id="southEast.3" depart="32.00" departLane="southJunction_0" departPos="5.10" departSpeed="6.75" departDelay="0.73" arrival="173.00" arrivalLane="junctionEast_0" arrivalPos="492.80" arrivalSpeed="8.04" duration="141.00" routeLength="989.53" waitingTime="0.00" waitingCount="0" stopTime="0.00" timeLoss="21.72" rerouteNo="0" devices="tripinfo_southEast.3 ssm_southEast.3" vType="carCustom" speedFactor="0.97" vaporized=""/>
    <tripinfo id="westEastBottom0.6" depart="98.00" departLane="westJunction_0" departPos="5.10" departSpeed="6.81" departDelay="0.31" arrival="174.00" arrivalLane="junctionEast_0" arrivalPos="492.80" arrivalSpeed="5.53" duration="76.00" routeLength="994.90" waitingTime="0.00" waitingCount="0" stopTime="0.00" timeLoss="15.60" rerouteNo="0" devices="tripinfo_westEastBottom0.6 ssm_westEastBottom0.6" vType="carCustom" speedFactor="1.03" vaporized="teleport"/>
    <tripinfo id="westEastTop.6" depart="28.00" departLane="westJunction_1" departPos="5.10" departSpeed="2.61" departDelay="4.95" arrival="180.00" arrivalLane="junctionEast_0" arrivalPos="492.80" arrivalSpeed="7.51" duration="152.00" routeLength="994.90" waitingTime="0.00" waitingCount="0" stopTime="0.00" timeLoss="31.87" rerouteNo="0" devices="tripinfo_westEastTop.6 ssm_westEastTop.6" vType="carCustom" speedFactor="0.98" vaporized=""/>
    <tripinfo id="westEastTop.7" depart="33.00" departLane="westJunction_1" departPos="5.10" departSpeed="2.74" departDelay="8.70" arrival="180.00" arrivalLane="junctionEast_1" arrivalPos="492.80" arrivalSpeed="8.01" duration="147.00" routeLength="994.90" waitingTime="0.00" waitingCount="0" stopTime="0.00" timeLoss="27.34" rerouteNo="0" devices="tripinfo_westEastTop.7 ssm_westEastTop.7" vType="carCustom" speedFactor="1.06" vaporized=""/>
    <tripinfo id="westEastBottom0.2" depart="48.00" departLane="westJunction_0" departPos="5.10" departSpeed="7.84" departDelay="0.44" arrival="186.00" arrivalLane="junctionEast_0" arrivalPos="492.80" arrivalSpeed="7.84" duration="138.00" routeLength="994.90" waitingTime="0.00" waitingCount="0" stopTime="0.00" timeLoss="18.21" rerouteNo="0" devices="tripinfo_westEastBottom0.2 ssm_westEastBottom0.2" vType="carCustom" speedFactor="1.00" vaporized=""/>
    <tripinfo id="southNorth.0" depart="24.00" departLane="southJunction_1" departPos="5.10" departSpeed="8.33" departDelay="0.20" arrival="193.00" arrivalLane="junctionNorth_0" arrivalPos="492.80" arrivalSpeed="7.86" duration="169.00" routeLength="995.01" waitingTime="36.00" waitingCount="1" stopTime="0.00" timeLoss="49.16" rerouteNo="0" devices="tripinfo_southNorth.0 ssm_southNorth.0" vType="carCustom" speedFactor="1.14" vaporized=""/>
    <tripinfo id="westEastTop.8" depart="38.00" departLane="westJunction_1" departPos="5.10" departSpeed="2.68" departDelay="8.74" arrival="193.00" arrivalLane="junctionEast_0" arrivalPos="492.80" arrivalSpeed="7.03" duration="155.00" routeLength="994.90" waitingTime="0.00" waitingCount="0" stopTime="0.00" timeLoss="35.05" rerouteNo="0" devices="tripinfo_westEastTop.8 ssm_westEastTop.8" vType="carCustom" speedFactor="1.02" vaporized=""/>
    <tripinfo id="westEastTop.9" depart="43.00" departLane="westJunction_1" departPos="5.10" departSpeed="3.29" departDelay="7.57" arrival="199.00" arrivalLane="junctionEast_0" arrivalPos="492.80" arrivalSpeed="7.13" duration="156.00" routeLength="994.90" waitingTime="1.00" waitingCount="1" stopTime="0.00" timeLoss="35.82" rerouteNo="0" devices="tripinfo_westEastTop.9 ssm_westEastTop.9" vType="carCustom" speedFactor="1.07" vaporized=""/>
    <tripinfo id="westEastBottom0.3" depart="62.00" departLane="westJunction_0" departPos="5.10" departSpeed="7.33" departDelay="0.51" arrival="200.00" arrivalLane="junctionEast_1" arrivalPos="492.80" arrivalSpeed="7.25" duration="138.00" routeLength="994.90" waitingTime="5.00" waitingCount="1" stopTime="0.00" timeLoss="17.45" rerouteNo="0" devices="tripinfo_westEastBottom0.3 ssm_westEastBottom0.3" vType="carCustom" speedFactor="1.24" vaporized=""/>
    <tripinfo id="westEastTop.10" depart="48.00" departLane="westJunction_1" departPos="5.10" departSpeed="2.59" departDelay="11.25" arrival="206.00" arrivalLane="junctionEast_1" arrivalPos="492.80" arrivalSpeed="7.69" duration="158.00" routeLength="994.90" waitingTime="0.00" waitingCount="0" stopTime="0.00" timeLoss="37.89" rerouteNo="0" devices="tripinfo_westEastTop.10 ssm_westEastTop.10" vType="carCustom" speedFactor="1.05" vaporized=""/>
    <tripinfo id="southEast.4" depart="69.00" departLane="southJunction_0" departPos="5.10" departSpeed="7.71" departDelay="0.46" arrival="206.00" arrivalLane="junctionEast_0" arrivalPos="492.80" arrivalSpeed="7.09" duration="137.00" routeLength="989.53" waitingTime="1.00" waitingCount="1" stopTime="0.00" timeLoss="17.34" rerouteNo="0" devices="tripinfo_southEast.4 ssm_southEast.4" vType="carCustom" speedFactor="0.97" vaporized=""/>
    <tripinfo id="southNorth.1" depart="46.00" departLane="southJunction_1" departPos="5.10" departSpeed="7.33" departDelay="0.73" arrival="208.00" arrivalLane="junctionNorth_0" arrivalPos="492.80" arrivalSpeed="7.91" duration="162.00" routeLength="995.01" waitingTime="21.00" waitingCount="2" stopTime="0.00" timeLoss="42.12" rerouteNo="0" devices="tripinfo_southNorth.1 ssm_southNorth.1" vType="carCustom" speedFactor="0.93" vaporized=""/>
    <tripinfo id="westEastTop.11" depart="53.00" departLane="westJunction_1" departPos="5.10" departSpeed="3.14" departDelay="11.16" arrival="213.00" arrivalLane="junctionEast_1" arrivalPos="492.80" arrivalSpeed="7.67" duration="160.00" routeLength="994.90" waitingTime="2.00" waitingCount="1" stopTime="0.00" timeLoss="40.46" rerouteNo="0" devices="tripinfo_westEastTop.11 ssm_westEastTop.11" vType="carCustom" speedFactor="0.86" vaporized=""/>
    <tripinfo id="southEast.5" depart="81.00" departLane="southJunction_0" departPos="5.10" departSpeed="7.47" departDelay="0.93" arrival="213.00" arrivalLane="junctionEast_0" arrivalPos="492.80" arrivalSpeed="7.43" duration="132.00" routeLength="989.53" waitingTime="0.00" waitingCount="0" stopTime="0.00" timeLoss="12.00" rerouteNo="0" devices="tripinfo_southEast.5 ssm_southEast.5" vType="carCustom" speedFactor="1.05" vaporized=""/>
    <tripinfo id="southNorth.2" depart="58.00" departLane="southJunction_1" departPos="5.10" departSpeed="7.32" departDelay="0.21" arrival="218.00" arrivalLane="junctionNorth_0" arrivalPos="492.80" arrivalSpeed="8.08" duration="160.00" routeLength="995.01" waitingTime="14.00" waitingCount="3" stopTime="0.00" timeLoss="40.10" rerouteNo="0" devices="tripinfo_southNorth.2 ssm_southNorth.2" vType="carCustom" speedFactor="1.13" vaporized=""/>
    <tripinfo id="southEast.6" depart="85.00" departLane="southJunction_0" departPos="5.10" departSpeed="7.33" departDelay="0.96" arrival="219.00" arrivalLane="junctionEast_0" arrivalPos="492.80" arrivalSpeed="8.13" duration="134.00" routeLength="989.53" waitingTime="0.00" waitingCount="0" stopTime="0.00" timeLoss="14.32" rerouteNo="0" devices="tripinfo_southEast.6 ssm_southEast.6" vType="carCustom" speedFactor="0.95" vaporized=""/>
    <tripinfo id="westEastTop.12" depart="58.00" departLane="westJunction_1" departPos="5.10" departSpeed="2.54" departDelay="15.84" arrival="226.00" arrivalLane="junctionEast_1" arrivalPos="492.80" arrivalSpeed="7.26" duration="168.00" routeLength="994.90" waitingTime="3.00" waitingCount="1" stopTime="0.00" timeLoss="48.06" rerouteNo="0" devices="tripinfo_westEastTop.12 ssm_westEastTop.12" vType="carCustom" speedFactor="1.08" vaporized=""/>
    <tripinfo id="westEastBottom0.4" depart="89.00" departLane="westJunction_0" departPos="5.10" departSpeed="7.58" departDelay="0.96" arrival="226.00" arrivalLane="junctionEast_0" arrivalPos="492.80" arrivalSpeed="8.29" duration="137.00" routeLength="994.90" waitingTime="0.00" waitingCount="0" stopTime="0.00" timeLoss="16.72" rerouteNo="0" devices="tripinfo_westEastBottom0.4 ssm_westEastBottom0.4" vType="carCustom" speedFactor="1.11" vaporized=""/>
    <tripinfo id="westEastBottom0.13" depart="140.00" departLane="westJunction_0" departPos="5.10" departSpeed="4.91" departDelay="0.81" arrival="228.00" arrivalLane="junctionEast_0" arrivalPos="492.80" arrivalSpeed="1.74" duration="88.00" routeLength="994.90" waitingTime="0.00" waitingCount="0" stopTime="0.00" timeLoss="27.71" rerouteNo="0" devices="tripinfo_westEastBottom0.13 ssm_westEastBottom0.13" vType="carCustom" speedFactor="1.14" vaporized="teleport"/>
    <tripinfo id="southNorth.3" depart="67.00" departLane="southJunction_1" departPos="5.10" departSpeed="7.91" departDelay="0.53" arrival="229.00" arrivalLane="junctionNorth_0" arrivalPos="492.80" arrivalSpeed="7.37" duration="162.00" routeLength="995.01" waitingTime="10.00" waitingCount="3" stopTime="0.00" timeLoss="42.14" rerouteNo="0" devices="tripinfo_southNorth.3 ssm_southNorth.3" vType="carCustom" speedFactor="1.02" vaporized=""/>
    <tripinfo id="southEast.7" depart="88.00" departLane="southJunction_0" departPos="5.10" departSpeed="5.47" departDelay="0.96" arrival="232.00" arrivalLane="junctionEast_0" arrivalPos="492.80" arrivalSpeed="7.45" duration="144.00" routeLength="989.53" waitingTime="0.00" waitingCount="0" stopTime="0.00" timeLoss="24.71" rerouteNo="0" devices="tripinfo_southEast.7 ssm_southEast.7" vType="carCustom" speedFactor="1.04" vaporized=""/>
    <tripinfo id="westEastTop.13" depart="63.00" departLane="westJunction_1" departPos="5.10" departSpeed="3.04" departDelay="17.12" arrival="233.00" arrivalLane="junctionEast_1" arrivalPos="492.80" arrivalSpeed="8.00" duration="170.00" routeLength="994.90" waitingTime="4.00" waitingCount="1" stopTime="0.00" timeLoss="50.23" rerouteNo="0" devices="tripinfo_westEastTop.13 ssm_westEastTop.13" vType="carCustom" speedFactor="1.05" vaporized=""/>
    <tripinfo id="westEastBottom0.5" depart="94.00" departLane="westJunction_0" departPos="5.10" departSpeed="7.73" departDelay="0.74" arrival="239.00" arrivalLane="junctionEast_0" arrivalPos="492.80" arrivalSpeed="8.31" duration="145.00" routeLength="994.90" waitingTime="2.00" waitingCount="1" stopTime="0.00" timeLoss="24.71" rerouteNo="0" devices="tripinfo_westEastBottom0.5 ssm_westEastBottom0.5" vType="carCustom" speedFactor="1.00" vaporized=""/>
    <tripinfo id="westEastTop.14" depart="68.00" departLane="westJunction_1" departPos="5.10" departSpeed="3.01" departDelay="18.08" arrival="240.00" arrivalLane="junctionEast_1" arrivalPos="492.80" arrivalSpeed="8.17" duration="172.00" routeLength="994.90" waitingTime="0.00" waitingCount="0" stopTime="0.00" timeLoss="52.17" rerouteNo="0" devices="tripinfo_westEastTop.14 ssm_westEastTop.14" vType="carCustom" speedFactor="1.18" vaporized=""/>
    <tripinfo id="southEast.8" depart="91.00" departLane="southJunction_0" departPos="5.10" departSpeed="4.23" departDelay="2.00" arrival="245.00" arrivalLane="junctionEast_0" arrivalPos="492.80" arrivalSpeed="7.46" duration="154.00" routeLength="989.53" waitingTime="1.00" waitingCount="1" stopTime="0.00" timeLoss="34.70" rerouteNo="0" devices="tripinfo_southEast.8 ssm_southEast.8" vType="carCustom" speedFactor="1.01" vaporized=""/>
    <tripinfo id="westEastTop.15" depart="74.00" departLane="westJunction_1" departPos="5.10" departSpeed="2.90" departDelay="21.94" arrival="247.00" arrivalLane="junctionEast_1" arrivalPos="492.80" arrivalSpeed="8.22" duration="173.00" routeLength="994.90" waitingTime="0.00" waitingCount="0" stopTime="0.00" timeLoss="52.85" rerouteNo="0" devices="tripinfo_westEastTop.15 ssm_westEastTop.15" vType="carCustom" speedFactor="0.88" vaporized=""/>
    <tripinfo id="westEastBottom0.16" depart="161.00" departLane="westJunction_0" departPos="5.10" departSpeed="5.35" departDelay="0.90" arrival="247.00" arrivalLane="junctionEast_0" arrivalPos="492.80" arrivalSpeed="3.06" duration="86.00" routeLength="994.90" waitingTime="0.00" waitingCount="0" stopTime="0.00" timeLoss="25.69" rerouteNo="0" devices="tripinfo_westEastBottom0.16 ssm_westEastBottom0.16" vType="carCustom" speedFactor="0.98" vaporized="teleport"/>
    <tripinfo id="westEastBottom0.7" depart="101.00" departLane="westJunction_0" departPos="5.10" departSpeed="4.45" departDelay="2.17" arrival="252.00" arrivalLane="junctionEast_0" arrivalPos="492.80" arrivalSpeed="7.57" duration="151.00" routeLength="994.90" waitingTime="0.00" waitingCount="0" stopTime="0.00" timeLoss="30.82" rerouteNo="0" devices="tripinfo_westEastBottom0.7 ssm_westEastBottom0.7" vType="carCustom" speedFactor="1.16" vaporized=""/>
    <tripinfo id="westEastTop.16" depart="79.00" departLane="westJunction_1" departPos="5.10" departSpeed="3.03" departDelay="21.81" arrival="253.00" arrivalLane="junctionEast_1" arrivalPos="492.80" arrivalSpeed="8.20" duration="174.00" routeLength="994.90" waitingTime="0.00" waitingCount="0" stopTime="0.00" timeLoss="54.41" rerouteNo="0" devices="tripinfo_westEastTop.16 ssm_westEastTop.16" vType="carCustom" speedFactor="0.86" vaporized=""/>
    <tripinfo id="southEast.9" depart="96.00" departLane="southJunction_0" departPos="5.10" departSpeed="3.13" departDelay="5.67" arrival="258.00" arrivalLane="junctionEast_0" arrivalPos="492.80" arrivalSpeed="7.37" duration="162.00" routeLength="989.53" waitingTime="2.00" waitingCount="1" stopTime="0.00" timeLoss="42.64" rerouteNo="0" devices="tripinfo_southEast.9 ssm_southEast.9" vType="carCustom" speedFactor="0.97" vaporized=""/>
    <tripinfo id="westEastTop.17" depart="84.00" departLane="westJunction_1" departPos="5.10" departSpeed="2.60" departDelay="14.40" arrival="260.00" arrivalLane="junctionEast_1" arrivalPos="492.80" arrivalSpeed="8.24" duration="176.00" routeLength="994.90" waitingTime="0.00" waitingCount="0" stopTime="0.00" timeLoss="56.14" rerouteNo="0" devices="tripinfo_westEastTop.17 ssm_westEastTop.17" vType="carCustom" speedFactor="1.12" vaporized=""/>
    <tripinfo id="westEastBottom0.8" depart="105.00" departLane="westJunction_0" departPos="5.10" departSpeed="4.29" departDelay="2.26" arrival="265.00" arrivalLane="junctionEast_0" arrivalPos="492.80" arrivalSpeed="7.91" duration="160.00" routeLength="994.90" waitingTime="0.00" waitingCount="0" stopTime="0.00" timeLoss="40.06" rerouteNo="0" devices="tripinfo_westEastBottom0.8 ssm_westEastBottom0.8" vType="carCustom" speedFactor="1.04" vaporized=""/>
    <tripinfo id="westEastTop.18" depart="89.00" departLane="westJunction_1" departPos="5.10" departSpeed="1.66" departDelay="19.39" arrival="267.00" arrivalLane="junctionEast_1" arrivalPos="492.80" arrivalSpeed="7.14" duration="178.00" routeLength="994.90" waitingTime="0.00" waitingCount="0" stopTime="0.00" timeLoss="57.75" rerouteNo="0" devices="tripinfo_westEastTop.18 ssm_westEastTop.18" vType="carCustom" speedFactor="1.06" vaporized=""/>
    <tripinfo id="southEast.12" depart="108.00" departLane="southJunction_0" departPos="5.10" departSpeed="4.04" departDelay="4.37" arrival="271.00" arrivalLane="junctionEast_0" arrivalPos="492.80" arrivalSpeed="8.10" duration="163.00" routeLength="989.53" waitingTime="0.00" waitingCount="0" stopTime="0.00" timeLoss="43.51" rerouteNo="0" devices="tripinfo_southEast.12 ssm_southEast.12" vType="carCustom" speedFactor="0.87" vaporized=""/>
    <tripinfo id="westEastTop.19" depart="95.00" departLane="westJunction_1" departPos="5.10" departSpeed="1.77" departDelay="3.22" arrival="274.00" arrivalLane="junctionEast_1" arrivalPos="492.80" arrivalSpeed="8.13" duration="179.00" routeLength="994.90" waitingTime="0.00" waitingCount="0" stopTime="0.00" timeLoss="58.63" rerouteNo="0" devices="tripinfo_westEastTop.19 ssm_westEastTop.19" vType="carCustom" speedFactor="1.07" vaporized=""/>
    <tripinfo id="westEastBottom0.9" depart="122.00" departLane="westJunction_0" departPos="5.10" departSpeed="5.41" departDelay="0.07" arrival="278.00" arrivalLane="junctionEast_0" arrivalPos="492.80" arrivalSpeed="7.20" duration="156.00" routeLength="994.90" waitingTime="0.00" waitingCount="0" stopTime="0.00" timeLoss="35.94" rerouteNo="0" devices="tripinfo_westEastBottom0.9 ssm_westEastBottom0.9" vType="carCustom" speedFactor="0.97" vaporized=""/>
    <tripinfo id="westEastTop.20" depart="101.00" departLane="westJunction_1" departPos="5.10" departSpeed="2.51" departDelay="7.96" arrival="280.00" arrivalLane="junctionEast_1" arrivalPos="492.80" arrivalSpeed="7.59" duration="179.00" routeLength="994.90" waitingTime="0.00" waitingCount="0" stopTime="0.00" timeLoss="58.82" rerouteNo="0" devices="tripinfo_westEastTop.20 ssm_westEastTop.20" vType="carCustom" speedFactor="1.10" vaporized=""/>
    <tripinfo id="southEast.10" depart="100.00" departLane="southJunction_0" departPos="5.10" departSpeed="5.67" departDelay="9.52" arrival="284.00" arrivalLane="junctionEast_0" arrivalPos="492.80" arrivalSpeed="8.22" duration="184.00" routeLength="989.53" waitingTime="1.00" waitingCount="1" stopTime="0.00" timeLoss="64.88" rerouteNo="0" devices="tripinfo_southEast.10 ssm_southEast.10" vType="carCustom" speedFactor="0.99" vaporized=""/>
    <tripinfo id="westEastBottom0.10" depart="125.00" departLane="westJunction_0" departPos="5.10" departSpeed="8.18" departDelay="0.38" arrival="286.00" arrivalLane="junctionEast_1" arrivalPos="492.80" arrivalSpeed="8.09" duration="161.00" routeLength="994.90" waitingTime="1.00" waitingCount="1" stopTime="0.00" timeLoss="41.27" rerouteNo="0" devices="tripinfo_westEastBottom0.10 ssm_westEastBottom0.10" vType="carCustom" speedFactor="1.03" vaporized=""/>
    <tripinfo id="westEastBottom0.21" depart="183.00" departLane="westJunction_0" departPos="5.10" departSpeed="3.91" departDelay="4.88" arrival="286.00" arrivalLane="junctionEast_0" arrivalPos="492.80" arrivalSpeed="0.61" duration="103.00" routeLength="994.90" waitingTime="0.00" waitingCount="0" stopTime="0.00" timeLoss="42.69" rerouteNo="0" devices="tripinfo_westEastBottom0.21 ssm_westEastBottom0.21" vType="carCustom" speedFactor="1.01" vaporized="teleport"/>
    <tripinfo id="southEast.11" depart="104.00" departLane="southJunction_0" departPos="5.10" departSpeed="4.13" departDelay="3.73" arrival="291.00" arrivalLane="junctionEast_0" arrivalPos="492.80" arrivalSpeed="7.78" duration="187.00" routeLength="989.53" waitingTime="3.00" waitingCount="2" stopTime="0.00" timeLoss="67.17" rerouteNo="0" devices="tripinfo_southEast.11 ssm_southEast.11" vType="carCustom" speedFactor="0.96" vaporized=""/>
    <tripinfo id="westEastTop.21" depart="106.00" departLane="westJunction_1" departPos="5.10" departSpeed="2.86" departDelay="1.86" arrival="293.00" arrivalLane="junctionEast_1" arrivalPos="492.80" arrivalSpeed="7.98" duration="187.00" routeLength="994.90" waitingTime="0.00" waitingCount="0" stopTime="0.00" timeLoss="66.79" rerouteNo="0" devices="tripinfo_westEastTop.21 ssm_westEastTop.21" vType="carCustom" speedFactor="1.04" vaporized=""/>
    <tripinfo id="westEastBottom0.11" depart="128.00" departLane="westJunction_0" departPos="5.10" departSpeed="4.62" departDelay="0.47" arrival="297.00" arrivalLane="junctionEast_0" arrivalPos="492.80" arrivalSpeed="7.88" duration="169.00" routeLength="994.90" waitingTime="0.00" waitingCount="0" stopTime="0.00" timeLoss="49.46" rerouteNo="0" devices="tripinfo_westEastBottom0.11 ssm_westEastBottom0.11" vType="carCustom" speedFactor="0.97" vaporized=""/>
    <tripinfo id="southNorth.4" depart="91.00" departLane="southJunction_1" departPos="5.10" departSpeed="7.25" departDelay="0.67" arrival="299.00" arrivalLane="junctionNorth_0" arrivalPos="492.80" arrivalSpeed="7.23" duration="208.00" routeLength="995.01" waitingTime="65.00" waitingCount="1" stopTime="0.00" timeLoss="88.15" rerouteNo="0" devices="tripinfo_southNorth.4 ssm_southNorth.4" vType="carCustom" speedFactor="1.02" vaporized=""/>
    <tripinfo id="westEastTop.22" depart="112.00" departLane="westJunction_1" departPos="5.10" departSpeed="2.30" departDelay="5.13" arrival="299.00" arrivalLane="junctionEast_1" arrivalPos="492.80" arrivalSpeed="7.87" duration="187.00" routeLength="994.90" waitingTime="0.00" waitingCount="0" stopTime="0.00" timeLoss="67.00" rerouteNo="0" devices="tripinfo_westEastTop.22 ssm_westEastTop.22" vType="carCustom" speedFactor="0.95" vaporized=""/>
    <tripinfo id="southEast.13" depart="119.00" departLane="southJunction_0" departPos="5.10" departSpeed="6.38" departDelay="0.02" arrival="304.00" arrivalLane="junctionEast_0" arrivalPos="492.80" arrivalSpeed="7.83" duration="185.00" routeLength="989.53" waitingTime="4.00" waitingCount="2" stopTime="0.00" timeLoss="65.38" rerouteNo="0" devices="tripinfo_southEast.13 ssm_southEast.13" vType="carCustom" speedFactor="1.04" vaporized=""/>
    <tripinfo id="westEastTop.23" depart="117.00" departLane="westJunction_1" departPos="5.10" departSpeed="2.95" departDelay="2.06" arrival="306.00" arrivalLane="junctionEast_1" arrivalPos="492.80" arrivalSpeed="8.21" duration="189.00" routeLength="994.90" waitingTime="0.00" waitingCount="0" stopTime="0.00" timeLoss="68.61" rerouteNo="0" devices="tripinfo_westEastTop.23 ssm_westEastTop.23" vType="carCustom" speedFactor="0.88" vaporized=""/>
    <tripinfo id="southEast.23" depart="218.00" departLane="southJunction_0" departPos="5.10" departSpeed="3.22" departDelay="4.22" arrival="306.00" arrivalLane="junctionEast_0" arrivalPos="492.80" arrivalSpeed="1.76" duration="88.00" routeLength="989.53" waitingTime="2.00" waitingCount="1" stopTime="0.00" timeLoss="27.82" rerouteNo="0" devices="tripinfo_southEast.23 ssm_southEast.23" vType="carCustom" speedFactor="0.91" vaporized="teleport"/>
    <tripinfo id="westEastBottom0.12" depart="132.00" departLane="westJunction_0" departPos="5.10" departSpeed="4.54" departDelay="0.04" arrival="310.00" arrivalLane="junctionEast_0" arrivalPos="492.80" arrivalSpeed="8.20" duration="178.00" routeLength="994.90" waitingTime="1.00" waitingCount="1" stopTime="0.00" timeLoss="58.30" rerouteNo="0" devices="tripinfo_westEastBottom0.12 ssm_westEastBottom0.12" vType="carCustom" speedFactor="0.98" vaporized=""/>
    <tripinfo id="westEastTop.24" depart="123.00" departLane="westJunction_1" departPos="5.10" departSpeed="2.34" departDelay="1.81" arrival="312.00" arrivalLane="junctionEast_1" arrivalPos="492.80" arrivalSpeed="8.25" duration="189.00" routeLength="994.90" waitingTime="0.00" waitingCount="0" stopTime="0.00" timeLoss="68.85" rerouteNo="0" devices="tripinfo_westEastTop.24 ssm_westEastTop.24" vType="carCustom" speedFactor="1.11" vaporized=""/>
    <tripinfo id="southNorth.5" depart="114.00" departLane="southJunction_1" departPos="5.10" departSpeed="7.71" departDelay="0.82" arrival="314.00" arrivalLane="junctionNorth_0" arrivalPos="492.80" arrivalSpeed="7.28" duration="200.00" routeLength="995.01" waitingTime="57.00" waitingCount="2" stopTime="0.00" timeLoss="80.24" rerouteNo="0" devices="tripinfo_southNorth.5 ssm_southNorth.5" vType="carCustom" speedFactor="1.20" vaporized=""/>
    <tripinfo id="southEast.14" depart="156.00" departLane="southJunction_0" departPos="5.10" departSpeed="5.83" departDelay="0.54" arrival="316.00" arrivalLane="junctionEast_0" arrivalPos="492.80" arrivalSpeed="7.57" duration="160.00" routeLength="989.53" waitingTime="0.00" waitingCount="0" stopTime="0.00" timeLoss="40.71" rerouteNo="0" devices="tripinfo_southEast.14 ssm_southEast.14" vType="carCustom" speedFactor="0.89" vaporized=""/>