<?xml version="1.0" encoding="UTF-8"?>

<!-- generated on 2025-04-29 08:51:27 by Eclipse SUMO sumo Version 1.20.0
<configuration xmlns:xsi="http://www.w3.org/2001/XMLSchema-instance" xsi:noNamespaceSchemaLocation="http://sumo.dlr.de/xsd/sumoConfiguration.xsd">

    <input>
        <net-file value="nets/2lane_unprotected_right/2lane_unprotected_right.net.xml"/>
        <route-files value="nets/2lane_unprotected_right/2lane_unprotected_right.rou.xml"/>
    </input>

    <output>
        <tripinfo-output value="traces/transs50f1_s50_f0.5_random/0179_tripinfo.xml"/>
        <collision-output value="traces/transs50f1_s50_f0.5_random/0179_collisions.xml"/>
        <statistic-output value="traces/transs50f1_s50_f0.5_random/0179_statistics.xml"/>
    </output>

    <processing>
        <collision.action value="teleport"/>
        <collision.check-junctions value="true"/>
        <time-to-teleport value="-1"/>
        <waiting-time-memory value="1000"/>
        <max-depart-delay value="-1"/>
        <default.speeddev value="0.1"/>
    </processing>

    <report>
        <no-warnings value="true"/>
    </report>

    <ssm_device>
        <device.ssm.probability value="1.0"/>
        <device.ssm.measures value="BR"/>
        <device.ssm.file value="/Users/finn/Code/CausalKnowledgeTransfer-4-SafeRL/traces/transs50f1_s50_f0.5_random/0179_ssm.xml"/>
    </ssm_device>

    <traci_server>
        <remote-port value="64621"/>
    </traci_server>

    <random_number>
        <random value="true"/>
    </random_number>

</configuration>
-->

<tripinfos xmlns:xsi="http://www.w3.org/2001/XMLSchema-instance" xsi:noNamespaceSchemaLocation="http://sumo.dlr.de/xsd/tripinfo_file.xsd">
    <tripinfo id="westEastBottom0.0" depart="3.00" departLane="westJunction_0" departPos="5.10" departSpeed="13.89" departDelay="0.73" arrival="78.00" arrivalLane="junctionEast_0" arrivalPos="492.80" arrivalSpeed="13.01" duration="75.00" routeLength="994.90" waitingTime="0.00" waitingCount="0" stopTime="0.00" timeLoss="2.78" rerouteNo="0" devices="tripinfo_westEastBottom0.0 ssm_westEastBottom0.0" vType="carCustom" speedFactor="0.89" vaporized=""/>
    <tripinfo id="westEastTop.0" depart="13.00" departLane="westJunction_1" departPos="5.10" departSpeed="13.89" departDelay="0.99" arrival="88.00" arrivalLane="junctionEast_0" arrivalPos="492.80" arrivalSpeed="13.03" duration="75.00" routeLength="994.90" waitingTime="0.00" waitingCount="0" stopTime="0.00" timeLoss="2.95" rerouteNo="0" devices="tripinfo_westEastTop.0 ssm_westEastTop.0" vType="carCustom" speedFactor="1.15" vaporized=""/>
    <tripinfo id="westEastBottom0.1" depart="15.00" departLane="westJunction_0" departPos="5.10" departSpeed="12.99" departDelay="0.95" arrival="97.00" arrivalLane="junctionEast_0" arrivalPos="492.80" arrivalSpeed="12.79" duration="82.00" routeLength="994.90" waitingTime="0.00" waitingCount="0" stopTime="0.00" timeLoss="9.60" rerouteNo="0" devices="tripinfo_westEastBottom0.1 ssm_westEastBottom0.1" vType="carCustom" speedFactor="0.99" vaporized=""/>
    <tripinfo id="westEastTop.1" depart="16.00" departLane="westJunction_1" departPos="5.10" departSpeed="13.77" departDelay="0.84" arrival="97.00" arrivalLane="junctionEast_1" arrivalPos="492.80" arrivalSpeed="12.94" duration="81.00" routeLength="994.90" waitingTime="0.00" waitingCount="0" stopTime="0.00" timeLoss="9.03" rerouteNo="0" devices="tripinfo_westEastTop.1 ssm_westEastTop.1" vType="carCustom" speedFactor="1.10" vaporized=""/>
    <tripinfo id="westEastBottom0.2" depart="20.00" departLane="westJunction_0" departPos="5.10" departSpeed="13.10" departDelay="0.02" arrival="105.00" arrivalLane="junctionEast_0" arrivalPos="492.80" arrivalSpeed="13.84" duration="85.00" routeLength="994.90" waitingTime="0.00" waitingCount="0" stopTime="0.00" timeLoss="12.85" rerouteNo="0" devices="tripinfo_westEastBottom0.2 ssm_westEastBottom0.2" vType="carCustom" speedFactor="0.88" vaporized=""/>
    <tripinfo id="westEastTop.2" depart="32.00" departLane="westJunction_1" departPos="5.10" departSpeed="11.00" departDelay="0.38" arrival="107.00" arrivalLane="junctionEast_0" arrivalPos="492.80" arrivalSpeed="13.23" duration="75.00" routeLength="994.90" waitingTime="0.00" waitingCount="0" stopTime="0.00" timeLoss="3.10" rerouteNo="0" devices="tripinfo_westEastTop.2 ssm_westEastTop.2" vType="carCustom" speedFactor="1.01" vaporized=""/>
    <tripinfo id="southEast.0" depart="16.00" departLane="southJunction_0" departPos="5.10" departSpeed="13.89" departDelay="0.03" arrival="114.00" arrivalLane="junctionEast_0" arrivalPos="492.80" arrivalSpeed="13.84" duration="98.00" routeLength="989.53" waitingTime="10.00" waitingCount="1" stopTime="0.00" timeLoss="25.50" rerouteNo="0" devices="tripinfo_southEast.0 ssm_southEast.0" vType="carCustom" speedFactor="0.97" vaporized=""/>
    <tripinfo id="westEastBottom0.3" depart="28.00" departLane="westJunction_0" departPos="5.10" departSpeed="11.37" departDelay="0.41" arrival="116.00" arrivalLane="junctionEast_1" arrivalPos="492.80" arrivalSpeed="13.15" duration="88.00" routeLength="994.90" waitingTime="0.00" waitingCount="0" stopTime="0.00" timeLoss="16.11" rerouteNo="0" devices="tripinfo_westEastBottom0.3 ssm_westEastBottom0.3" vType="carCustom" speedFactor="0.82" vaporized=""/>
    <tripinfo id="southEast.1" depart="28.00" departLane="southJunction_0" departPos="5.10" departSpeed="12.99" departDelay="0.72" arrival="123.00" arrivalLane="junctionEast_0" arrivalPos="492.80" arrivalSpeed="13.23" duration="95.00" routeLength="989.53" waitingTime="3.00" waitingCount="1" stopTime="0.00" timeLoss="22.40" rerouteNo="0" devices="tripinfo_southEast.1 ssm_southEast.1" vType="carCustom" speedFactor="1.13" vaporized=""/>
    <tripinfo id="westEastTop.3" depart="34.00" departLane="westJunction_1" departPos="5.10" departSpeed="12.90" departDelay="0.45" arrival="125.00" arrivalLane="junctionEast_1" arrivalPos="492.80" arrivalSpeed="12.83" duration="91.00" routeLength="994.90" waitingTime="0.00" waitingCount="0" stopTime="0.00" timeLoss="18.79" rerouteNo="0" devices="tripinfo_westEastTop.3 ssm_westEastTop.3" vType="carCustom" speedFactor="1.02" vaporized=""/>
    <tripinfo id="southEast.2" depart="31.00" departLane="southJunction_0" departPos="5.10" departSpeed="13.36" departDelay="0.08" arrival="131.00" arrivalLane="junctionEast_0" arrivalPos="492.80" arrivalSpeed="13.44" duration="100.00" routeLength="989.53" waitingTime="0.00" waitingCount="0" stopTime="0.00" timeLoss="27.20" rerouteNo="0" devices="tripinfo_southEast.2 ssm_southEast.2" vType="carCustom" speedFactor="1.01" vaporized=""/>
    <tripinfo id="westEastTop.4" depart="40.00" departLane="westJunction_1" departPos="5.10" departSpeed="8.58" departDelay="0.39" arrival="134.00" arrivalLane="junctionEast_0" arrivalPos="492.80" arrivalSpeed="12.76" duration="94.00" routeLength="994.90" waitingTime="0.00" waitingCount="0" stopTime="0.00" timeLoss="21.46" rerouteNo="0" devices="tripinfo_westEastTop.4 ssm_westEastTop.4" vType="carCustom" speedFactor="1.08" vaporized=""/>
    <tripinfo id="southEast.5" depart="93.00" departLane="southJunction_0" departPos="5.10" departSpeed="12.87" departDelay="0.11" arrival="138.00" arrivalLane="junctionEast_0" arrivalPos="492.80" arrivalSpeed="4.92" duration="45.00" routeLength="989.53" waitingTime="0.00" waitingCount="0" stopTime="0.00" timeLoss="8.21" rerouteNo="0" devices="tripinfo_southEast.5 ssm_southEast.5" vType="carCustom" speedFactor="1.10" vaporized="teleport"/>
    <tripinfo id="westEastBottom0.4" depart="52.00" departLane="westJunction_0" departPos="5.10" departSpeed="12.05" departDelay="0.62" arrival="139.00" arrivalLane="junctionEast_0" arrivalPos="492.80" arrivalSpeed="13.36" duration="87.00" routeLength="994.90" waitingTime="0.00" waitingCount="0" stopTime="0.00" timeLoss="15.01" rerouteNo="0" devices="tripinfo_westEastBottom0.4 ssm_westEastBottom0.4" vType="carCustom" speedFactor="1.09" vaporized=""/>
    <tripinfo id="westEastTop.5" depart="45.00" departLane="westJunction_1" departPos="5.10" departSpeed="7.96" departDelay="0.89" arrival="142.00" arrivalLane="junctionEast_0" arrivalPos="492.80" arrivalSpeed="13.83" duration="97.00" routeLength="994.90" waitingTime="0.00" waitingCount="0" stopTime="0.00" timeLoss="24.52" rerouteNo="0" devices="tripinfo_westEastTop.5 ssm_westEastTop.5" vType="carCustom" speedFactor="1.07" vaporized=""/>
    <tripinfo id="southEast.3" depart="50.00" departLane="southJunction_0" departPos="5.10" departSpeed="10.79" departDelay="0.26" arrival="147.00" arrivalLane="junctionEast_0" arrivalPos="492.80" arrivalSpeed="13.87" duration="97.00" routeLength="989.53" waitingTime="0.00" waitingCount="0" stopTime="0.00" timeLoss="24.76" rerouteNo="0" devices="tripinfo_southEast.3 ssm_southEast.3" vType="carCustom" speedFactor="1.08" vaporized=""/>
    <tripinfo id="southNorth.0" depart="36.00" departLane="southJunction_1" departPos="5.10" departSpeed="13.89" departDelay="0.34" arrival="150.00" arrivalLane="junctionNorth_0" arrivalPos="492.80" arrivalSpeed="13.75" duration="114.00" routeLength="995.01" waitingTime="32.00" waitingCount="1" stopTime="0.00" timeLoss="41.53" rerouteNo="0" devices="tripinfo_southNorth.0 ssm_southNorth.0" vType="carCustom" speedFactor="1.09" vaporized=""/>
    <tripinfo id="westEastBottom0.5" depart="54.00" departLane="westJunction_0" departPos="5.10" departSpeed="13.85" departDelay="2.39" arrival="150.00" arrivalLane="junctionEast_0" arrivalPos="492.80" arrivalSpeed="12.78" duration="96.00" routeLength="994.90" waitingTime="0.00" waitingCount="0" stopTime="0.00" timeLoss="23.67" rerouteNo="0" devices="tripinfo_westEastBottom0.5 ssm_westEastBottom0.5" vType="carCustom" speedFactor="1.20" vaporized=""/>
    <tripinfo id="westEastBottom0.6" depart="56.00" departLane="westJunction_0" departPos="5.10" departSpeed="10.88" departDelay="0.39" arrival="155.00" arrivalLane="junctionEast_0" arrivalPos="492.80" arrivalSpeed="12.97" duration="99.00" routeLength="994.90" waitingTime="0.00" waitingCount="0" stopTime="0.00" timeLoss="27.19" rerouteNo="0" devices="tripinfo_westEastBottom0.6 ssm_westEastBottom0.6" vType="carCustom" speedFactor="0.94" vaporized=""/>
    <tripinfo id="westEastTop.6" depart="52.00" departLane="westJunction_1" departPos="5.10" departSpeed="7.60" departDelay="0.37" arrival="158.00" arrivalLane="junctionEast_1" arrivalPos="492.80" arrivalSpeed="13.03" duration="106.00" routeLength="994.90" waitingTime="0.00" waitingCount="0" stopTime="0.00" timeLoss="33.61" rerouteNo="0" devices="tripinfo_westEastTop.6 ssm_westEastTop.6" vType="carCustom" speedFactor="0.99" vaporized=""/>
    <tripinfo id="southNorth.1" depart="54.00" departLane="southJunction_1" departPos="5.10" departSpeed="13.36" departDelay="0.92" arrival="159.00" arrivalLane="junctionNorth_0" arrivalPos="492.80" arrivalSpeed="13.58" duration="105.00" routeLength="995.01" waitingTime="10.00" waitingCount="1" stopTime="0.00" timeLoss="32.76" rerouteNo="0" devices="tripinfo_southNorth.1 ssm_southNorth.1" vType="carCustom" speedFactor="1.07" vaporized=""/>
    <tripinfo id="westEastBottom0.8" depart="73.00" departLane="westJunction_0" departPos="5.10" departSpeed="8.49" departDelay="0.97" arrival="163.00" arrivalLane="junctionEast_0" arrivalPos="492.80" arrivalSpeed="13.19" duration="90.00" routeLength="994.90" waitingTime="0.00" waitingCount="0" stopTime="0.00" timeLoss="18.30" rerouteNo="0" devices="tripinfo_westEastBottom0.8 ssm_westEastBottom0.8" vType="carCustom" speedFactor="0.94" vaporized=""/>
    <tripinfo id="westEastBottom0.7" depart="58.00" departLane="westJunction_0" departPos="5.10" departSpeed="7.91" departDelay="1.51" arrival="166.00" arrivalLane="junctionEast_1" arrivalPos="492.80" arrivalSpeed="13.04" duration="108.00" routeLength="994.90" waitingTime="0.00" waitingCount="0" stopTime="0.00" timeLoss="35.74" rerouteNo="0" devices="tripinfo_westEastBottom0.7 ssm_westEastBottom0.7" vType="carCustom" speedFactor="0.97" vaporized=""/>
    <tripinfo id="westEastBottom0.9" depart="75.00" departLane="westJunction_0" departPos="5.10" departSpeed="12.10" departDelay="2.45" arrival="171.00" arrivalLane="junctionEast_0" arrivalPos="492.80" arrivalSpeed="13.82" duration="96.00" routeLength="994.90" waitingTime="0.00" waitingCount="0" stopTime="0.00" timeLoss="24.38" rerouteNo="0" devices="tripinfo_westEastBottom0.9 ssm_westEastBottom0.9" vType="carCustom" speedFactor="1.08" vaporized=""/>
    <tripinfo id="westEastTop.7" depart="64.00" departLane="westJunction_1" departPos="5.10" departSpeed="6.94" departDelay="0.34" arrival="174.00" arrivalLane="junctionEast_1" arrivalPos="492.80" arrivalSpeed="13.08" duration="110.00" routeLength="994.90" waitingTime="0.00" waitingCount="0" stopTime="0.00" timeLoss="37.76" rerouteNo="0" devices="tripinfo_westEastTop.7 ssm_westEastTop.7" vType="carCustom" speedFactor="0.90" vaporized=""/>
    <tripinfo id="southEast.4" depart="83.00" departLane="southJunction_0" departPos="5.10" departSpeed="9.29" departDelay="0.01" arrival="179.00" arrivalLane="junctionEast_0" arrivalPos="492.80" arrivalSpeed="12.97" duration="96.00" routeLength="989.53" waitingTime="1.00" waitingCount="1" stopTime="0.00" timeLoss="24.04" rerouteNo="0" devices="tripinfo_southEast.4 ssm_southEast.4" vType="carCustom" speedFactor="1.02" vaporized=""/>
    <tripinfo id="westEastTop.8" depart="67.00" departLane="westJunction_1" departPos="5.10" departSpeed="7.07" departDelay="0.59" arrival="182.00" arrivalLane="junctionEast_0" arrivalPos="492.80" arrivalSpeed="12.91" duration="115.00" routeLength="994.90" waitingTime="0.00" waitingCount="0" stopTime="0.00" timeLoss="42.63" rerouteNo="0" devices="tripinfo_westEastTop.8 ssm_westEastTop.8" vType="carCustom" speedFactor="1.05" vaporized=""/>
    <tripinfo id="southNorth.2" depart="64.00" departLane="southJunction_1" departPos="5.10" departSpeed="13.74" departDelay="0.43" arrival="187.00" arrivalLane="junctionNorth_0" arrivalPos="492.80" arrivalSpeed="13.20" duration="123.00" routeLength="995.01" waitingTime="27.00" waitingCount="2" stopTime="0.00" timeLoss="50.76" rerouteNo="0" devices="tripinfo_southNorth.2 ssm_southNorth.2" vType="carCustom" speedFactor="0.97" vaporized=""/>
    <tripinfo id="westEastBottom0.10" depart="80.00" departLane="westJunction_0" departPos="5.10" departSpeed="6.05" departDelay="0.86" arrival="187.00" arrivalLane="junctionEast_0" arrivalPos="492.80" arrivalSpeed="13.77" duration="107.00" routeLength="994.90" waitingTime="0.00" waitingCount="0" stopTime="0.00" timeLoss="34.86" rerouteNo="0" devices="tripinfo_westEastBottom0.10 ssm_westEastBottom0.10" vType="carCustom" speedFactor="0.91" vaporized=""/>
    <tripinfo id="westEastTop.9" depart="70.00" departLane="westJunction_1" departPos="5.10" departSpeed="3.78" departDelay="3.45" arrival="189.00" arrivalLane="junctionEast_0" arrivalPos="492.80" arrivalSpeed="13.51" duration="119.00" routeLength="994.90" waitingTime="0.00" waitingCount="0" stopTime="0.00" timeLoss="47.34" rerouteNo="0" devices="tripinfo_westEastTop.9 ssm_westEastTop.9" vType="carCustom" speedFactor="1.00" vaporized=""/>
    <tripinfo id="westEastBottom0.11" depart="86.00" departLane="westJunction_0" departPos="5.10" departSpeed="6.55" departDelay="0.08" arrival="195.00" arrivalLane="junctionEast_0" arrivalPos="492.80" arrivalSpeed="13.34" duration="109.00" routeLength="994.90" waitingTime="0.00" waitingCount="0" stopTime="0.00" timeLoss="36.77" rerouteNo="0" devices="tripinfo_westEastBottom0.11 ssm_westEastBottom0.11" vType="carCustom" speedFactor="0.95" vaporized=""/>
    <tripinfo id="westEastTop.10" depart="80.00" departLane="westJunction_1" departPos="5.10" departSpeed="4.62" departDelay="0.54" arrival="197.00" arrivalLane="junctionEast_1" arrivalPos="492.80" arrivalSpeed="13.82" duration="117.00" routeLength="994.90" waitingTime="5.00" waitingCount="1" stopTime="0.00" timeLoss="45.13" rerouteNo="0" devices="tripinfo_westEastTop.10 ssm_westEastTop.10" vType="carCustom" speedFactor="1.08" vaporized=""/>
    <tripinfo id="southEast.6" depart="104.00" departLane="southJunction_0" departPos="5.10" departSpeed="12.73" departDelay="0.74" arrival="202.00" arrivalLane="junctionEast_0" arrivalPos="492.80" arrivalSpeed="13.18" duration="98.00" routeLength="989.53" waitingTime="0.00" waitingCount="0" stopTime="0.00" timeLoss="25.73" rerouteNo="0" devices="tripinfo_southEast.6 ssm_southEast.6" vType="carCustom" speedFactor="0.81" vaporized=""/>
    <tripinfo id="southNorth.3" depart="73.00" departLane="southJunction_1" departPos="5.10" departSpeed="13.81" departDelay="0.48" arrival="204.00" arrivalLane="junctionNorth_0" arrivalPos="492.80" arrivalSpeed="13.09" duration="131.00" routeLength="995.01" waitingTime="32.00" waitingCount="2" stopTime="0.00" timeLoss="58.54" rerouteNo="0" devices="tripinfo_southNorth.3 ssm_southNorth.3" vType="carCustom" speedFactor="0.93" vaporized=""/>
    <tripinfo id="westEastTop.11" depart="88.00" departLane="westJunction_1" departPos="5.10" departSpeed="5.95" departDelay="0.60" arrival="205.00" arrivalLane="junctionEast_0" arrivalPos="492.80" arrivalSpeed="13.40" duration="117.00" routeLength="994.90" waitingTime="0.00" waitingCount="0" stopTime="0.00" timeLoss="45.33" rerouteNo="0" devices="tripinfo_westEastTop.11 ssm_westEastTop.11" vType="carCustom" speedFactor="1.02" vaporized=""/>
    <tripinfo id="westEastBottom0.12" depart="92.00" departLane="westJunction_0" departPos="5.10" departSpeed="6.28" departDelay="0.83" arrival="210.00" arrivalLane="junctionEast_0" arrivalPos="492.80" arrivalSpeed="13.64" duration="118.00" routeLength="994.90" waitingTime="0.00" waitingCount="0" stopTime="0.00" timeLoss="45.89" rerouteNo="0" devices="tripinfo_westEastBottom0.12 ssm_westEastBottom0.12" vType="carCustom" speedFactor="0.96" vaporized=""/>
    <tripinfo id="westEastTop.12" depart="99.00" departLane="westJunction_1" departPos="5.10" departSpeed="6.48" departDelay="0.91" arrival="213.00" arrivalLane="junctionEast_0" arrivalPos="492.80" arrivalSpeed="13.14" duration="114.00" routeLength="994.90" waitingTime="5.00" waitingCount="1" stopTime="0.00" timeLoss="42.15" rerouteNo="0" devices="tripinfo_westEastTop.12 ssm_westEastTop.12" vType="carCustom" speedFactor="1.04" vaporized=""/>
    <tripinfo id="westEastBottom0.13" depart="97.00" departLane="westJunction_0" departPos="5.10" departSpeed="5.85" departDelay="0.17" arrival="217.00" arrivalLane="junctionEast_0" arrivalPos="492.80" arrivalSpeed="13.76" duration="120.00" routeLength="994.90" waitingTime="0.00" waitingCount="0" stopTime="0.00" timeLoss="48.30" rerouteNo="0" devices="tripinfo_westEastBottom0.13 ssm_westEastBottom0.13" vType="carCustom" speedFactor="0.90" vaporized=""/>
    <tripinfo id="southNorth.4" depart="93.00" departLane="southJunction_1" departPos="5.10" departSpeed="11.97" departDelay="0.47" arrival="218.00" arrivalLane="junctionNorth_0" arrivalPos="492.80" arrivalSpeed="13.02" duration="125.00" routeLength="995.01" waitingTime="25.00" waitingCount="3" stopTime="0.00" timeLoss="53.34" rerouteNo="0" devices="tripinfo_southNorth.4 ssm_southNorth.4" vType="carCustom" speedFactor="1.04" vaporized=""/>
    <tripinfo id="westEastTop.13" depart="101.00" departLane="westJunction_1" departPos="5.10" departSpeed="9.16" departDelay="0.81" arrival="222.00" arrivalLane="junctionEast_0" arrivalPos="492.80" arrivalSpeed="13.14" duration="121.00" routeLength="994.90" waitingTime="0.00" waitingCount="0" stopTime="0.00" timeLoss="48.61" rerouteNo="0" devices="tripinfo_westEastTop.13 ssm_westEastTop.13" vType="carCustom" speedFactor="1.01" vaporized=""/>
    <tripinfo id="westEastBottom0.14" depart="103.00" departLane="westJunction_0" departPos="5.10" departSpeed="5.71" departDelay="0.27" arrival="226.00" arrivalLane="junctionEast_0" arrivalPos="492.80" arrivalSpeed="13.49" duration="123.00" routeLength="994.90" waitingTime="0.00" waitingCount="0" stopTime="0.00" timeLoss="50.57" rerouteNo="0" devices="tripinfo_westEastBottom0.14 ssm_westEastBottom0.14" vType="carCustom" speedFactor="0.85" vaporized=""/>
    <tripinfo id="southNorth.5" depart="96.00" departLane="southJunction_1" departPos="5.10" departSpeed="13.52" departDelay="0.70" arrival="228.00" arrivalLane="junctionNorth_0" arrivalPos="492.80" arrivalSpeed="12.66" duration="132.00" routeLength="995.01" waitingTime="17.00" waitingCount="3" stopTime="0.00" timeLoss="60.13" rerouteNo="0" devices="tripinfo_southNorth.5 ssm_southNorth.5" vType="carCustom" speedFactor="0.94" vaporized=""/>
    <tripinfo id="westEastTop.14" depart="103.00" departLane="westJunction_1" departPos="5.10" departSpeed="6.19" departDelay="2.39" arrival="230.00" arrivalLane="junctionEast_0" arrivalPos="492.80" arrivalSpeed="13.59" duration="127.00" routeLength="994.90" waitingTime="1.00" waitingCount="1" stopTime="0.00" timeLoss="54.69" rerouteNo="0" devices="tripinfo_westEastTop.14 ssm_westEastTop.14" vType="carCustom" speedFactor="1.01" vaporized=""/>
    <tripinfo id="westEastBottom0.15" depart="113.00" departLane="westJunction_0" departPos="5.10" departSpeed="6.56" departDelay="0.11" arrival="233.00" arrivalLane="junctionEast_0" arrivalPos="492.80" arrivalSpeed="12.74" duration="120.00" routeLength="994.90" waitingTime="0.00" waitingCount="0" stopTime="0.00" timeLoss="47.68" rerouteNo="0" devices="tripinfo_westEastBottom0.15 ssm_westEastBottom0.15" vType="carCustom" speedFactor="1.08" vaporized=""/>
    <tripinfo id="westEastTop.15" depart="119.00" departLane="westJunction_1" departPos="5.10" departSpeed="5.49" departDelay="0.27" arrival="238.00" arrivalLane="junctionEast_0" arrivalPos="492.80" arrivalSpeed="13.08" duration="119.00" routeLength="994.90" waitingTime="2.00" waitingCount="1" stopTime="0.00" timeLoss="47.02" rerouteNo="0" devices="tripinfo_westEastTop.15 ssm_westEastTop.15" vType="carCustom" speedFactor="0.88" vaporized=""/>
    <tripinfo id="westEastBottom0.16" depart="121.00" departLane="westJunction_0" departPos="5.10" departSpeed="7.07" departDelay="0.46" arrival="242.00" arrivalLane="junctionEast_0" arrivalPos="492.80" arrivalSpeed="13.85" duration="121.00" routeLength="994.90" waitingTime="0.00" waitingCount="0" stopTime="0.00" timeLoss="49.11" rerouteNo="0" devices="tripinfo_westEastBottom0.16 ssm_westEastBottom0.16" vType="carCustom" speedFactor="1.03" vaporized=""/>
    <tripinfo id="westEastTop.16" depart="122.00" departLane="westJunction_1" departPos="5.10" departSpeed="8.38" departDelay="2.84" arrival="246.00" arrivalLane="junctionEast_1" arrivalPos="492.80" arrivalSpeed="12.99" duration="124.00" routeLength="994.90" waitingTime="0.00" waitingCount="0" stopTime="0.00" timeLoss="51.94" rerouteNo="0" devices="tripinfo_westEastTop.16 ssm_westEastTop.16" vType="carCustom" speedFactor="1.01" vaporized=""/>
    <tripinfo id="westEastBottom0.17" depart="156.00" departLane="westJunction_0" departPos="5.10" departSpeed="7.84" departDelay="0.62" arrival="251.00" arrivalLane="junctionEast_0" arrivalPos="492.80" arrivalSpeed="12.69" duration="95.00" routeLength="994.90" waitingTime="0.00" waitingCount="0" stopTime="0.00" timeLoss="23.05" rerouteNo="0" devices="tripinfo_westEastBottom0.17 ssm_westEastBottom0.17" vType="carCustom" speedFactor="0.93" vaporized=""/>
    <tripinfo id="southEast.7" depart="161.00" departLane="southJunction_0" departPos="5.10" departSpeed="13.89" departDelay="0.39" arrival="253.00" arrivalLane="junctionEast_0" arrivalPos="492.80" arrivalSpeed="13.25" duration="92.00" routeLength="989.53" waitingTime="0.00" waitingCount="0" stopTime="0.00" timeLoss="19.62" rerouteNo="0" devices="tripinfo_southEast.7 ssm_southEast.7" vType="carCustom" speedFactor="1.06" vaporized=""/>
    <tripinfo id="westEastTop.17" depart="125.00" departLane="westJunction_1" departPos="5.10" departSpeed="5.20" departDelay="2.62" arrival="258.00" arrivalLane="junctionEast_0" arrivalPos="492.80" arrivalSpeed="13.72" duration="133.00" routeLength="994.90" waitingTime="0.00" waitingCount="0" stopTime="0.00" timeLoss="60.85" rerouteNo="0" devices="tripinfo_westEastTop.17 ssm_westEastTop.17" vType="carCustom" speedFactor="1.01" vaporized=""/>
    <tripinfo id="westEastBottom0.18" depart="184.00" departLane="westJunction_0" departPos="5.10" departSpeed="13.08" departDelay="0.71" arrival="262.00" arrivalLane="junctionEast_0" arrivalPos="492.80" arrivalSpeed="13.65" duration="78.00" routeLength="994.90" waitingTime="0.00" waitingCount="0" stopTime="0.00" timeLoss="6.04" rerouteNo="0" devices="tripinfo_westEastBottom0.18 ssm_westEastBottom0.18" vType="carCustom" speedFactor="0.85" vaporized=""/>
    <tripinfo id="southNorth.6" depart="110.00" departLane="southJunction_1" departPos="5.10" departSpeed="10.50" departDelay="0.98" arrival="266.00" arrivalLane="junctionNorth_0" arrivalPos="492.80" arrivalSpeed="13.22" duration="156.00" routeLength="995.01" waitingTime="41.00" waitingCount="4" stopTime="0.00" timeLoss="83.44" rerouteNo="0" devices="tripinfo_southNorth.6 ssm_southNorth.6" vType="carCustom" speedFactor="1.19" vaporized=""/>
    <tripinfo id="westEastTop.18" depart="130.00" departLane="westJunction_1" departPos="5.10" departSpeed="4.87" departDelay="0.76" arrival="266.00" arrivalLane="junctionEast_0" arrivalPos="492.80" arrivalSpeed="12.64" duration="136.00" routeLength="994.90" waitingTime="0.00" waitingCount="0" stopTime="0.00" timeLoss="64.08" rerouteNo="0" devices="tripinfo_westEastTop.18 ssm_westEastTop.18" vType="carCustom" speedFactor="1.08" vaporized=""/>
    <tripinfo id="westEastTop.20" depart="138.00" departLane="westJunction_1" departPos="5.10" departSpeed="3.77" departDelay="3.44" arrival="269.00" arrivalLane="junctionEast_0" arrivalPos="492.80" arrivalSpeed="13.61" duration="131.00" routeLength="994.90" waitingTime="0.00" waitingCount="0" stopTime="0.00" timeLoss="59.05" rerouteNo="0" devices="tripinfo_westEastTop.20 ssm_westEastTop.20" vType="carCustom" speedFactor="0.92" vaporized=""/>
    <tripinfo id="westEastTop.19" depart="134.00" departLane="westJunction_1" departPos="5.10" departSpeed="3.45" departDelay="2.92" arrival="275.00" arrivalLane="junctionEast_1" arrivalPos="492.80" arrivalSpeed="12.78" duration="141.00" routeLength="994.90" waitingTime="0.00" waitingCount="0" stopTime="0.00" timeLoss="69.10" rerouteNo="0" devices="tripinfo_westEastTop.19 ssm_westEastTop.19" vType="carCustom" speedFactor="0.97" vaporized=""/>
    <tripinfo id="westEastBottom0.19" depart="188.00" departLane="westJunction_0" departPos="5.10" departSpeed="13.76" departDelay="0.94" arrival="276.00" arrivalLane="junctionEast_0" arrivalPos="492.80" arrivalSpeed="12.99" duration="88.00" routeLength="994.90" waitingTime="0.00" waitingCount="0" stopTime="0.00" timeLoss="15.49" rerouteNo="0" devices="tripinfo_westEastBottom0.19 ssm_westEastBottom0.19" vType="carCustom" speedFactor="1.08" vaporized=""/>
    <tripinfo id="southNorth.7" depart="113.00" departLane="southJunction_1" departPos="5.10" departSpeed="12.67" departDelay="0.33" arrival="282.00" arrivalLane="junctionNorth_0" arrivalPos="492.80" arrivalSpeed="13.31" duration="169.00" routeLength="995.01" waitingTime="45.00" waitingCount="3" stopTime="0.00" timeLoss="97.29" rerouteNo="0" devices="tripinfo_southNorth.7 ssm_southNorth.7" vType="carCustom" speedFactor="0.95" vaporized=""/>
    <tripinfo id="westEastTop.21" depart="143.00" departLane="westJunction_1" departPos="5.10" departSpeed="3.30" departDelay="6.37" arrival="282.00" arrivalLane="junctionEast_0" arrivalPos="492.80" arrivalSpeed="13.25" duration="139.00" routeLength="994.90" waitingTime="0.00" waitingCount="0" stopTime="0.00" timeLoss="66.97" rerouteNo="0" devices="tripinfo_westEastTop.21 ssm_westEastTop.21" vType="carCustom" speedFactor="1.04" vaporized=""/>
    <tripinfo id="southEast.8" depart="196.00" departLane="southJunction_0" departPos="5.10" departSpeed="10.19" departDelay="0.93" arrival="286.00" arrivalLane="junctionEast_0" arrivalPos="492.80" arrivalSpeed="13.37" duration="90.00" routeLength="989.53" waitingTime="0.00" waitingCount="0" stopTime="0.00" timeLoss="18.14" rerouteNo="0" devices="tripinfo_southEast.8 ssm_southEast.8" vType="carCustom" speedFactor="1.05" vaporized=""/>
    <tripinfo id="westEastTop.22" depart="148.00" departLane="westJunction_1" departPos="5.10" departSpeed="3.24" departDelay="4.09" arrival="288.00" arrivalLane="junctionEast_1" arrivalPos="492.80" arrivalSpeed="13.15" duration="140.00" routeLength="994.90" waitingTime="0.00" waitingCount="0" stopTime="0.00" timeLoss="68.01" rerouteNo="0" devices="tripinfo_westEastTop.22 ssm_westEastTop.22" vType="carCustom" speedFactor="0.91" vaporized=""/>
    <tripinfo id="southNorth.8" depart="116.00" departLane="southJunction_1" departPos="5.10" departSpeed="8.74" departDelay="0.68" arrival="293.00" arrivalLane="junctionNorth_0" arrivalPos="492.80" arrivalSpeed="12.82" duration="177.00" routeLength="995.01" waitingTime="42.00" waitingCount="4" stopTime="0.00" timeLoss="105.03" rerouteNo="0" devices="tripinfo_southNorth.8 ssm_southNorth.8" vType="carCustom" speedFactor="0.97" vaporized=""/>
    <tripinfo id="westEastBottom0.20" depart="190.00" departLane="westJunction_0" departPos="5.10" departSpeed="10.92" departDelay="0.73" arrival="293.00" arrivalLane="junctionEast_0" arrivalPos="492.80" arrivalSpeed="12.89" duration="103.00" routeLength="994.90" waitingTime="0.00" waitingCount="0" stopTime="0.00" timeLoss="31.06" rerouteNo="0" devices="tripinfo_westEastBottom0.20 ssm_westEastBottom0.20" vType="carCustom" speedFactor="1.11" vaporized=""/>
    <tripinfo id="westEastTop.23" depart="153.00" departLane="westJunction_1" departPos="5.10" departSpeed="2.70" departDelay="1.30" arrival="296.00" arrivalLane="junctionEast_0" arrivalPos="492.80" arrivalSpeed="13.62" duration="143.00" routeLength="994.90" waitingTime="5.00" waitingCount="1" stopTime="0.00" timeLoss="70.39" rerouteNo="0" devices="tripinfo_westEastTop.23 ssm_westEastTop.23" vType="carCustom" speedFactor="1.06" vaporized=""/>