<?xml version="1.0" encoding="UTF-8"?>

<!-- generated on 2025-04-29 09:01:11 by Eclipse SUMO sumo Version 1.20.0
<configuration xmlns:xsi="http://www.w3.org/2001/XMLSchema-instance" xsi:noNamespaceSchemaLocation="http://sumo.dlr.de/xsd/sumoConfiguration.xsd">

    <input>
        <net-file value="nets/2lane_unprotected_right/2lane_unprotected_right.net.xml"/>
        <route-files value="nets/2lane_unprotected_right/2lane_unprotected_right.rou.xml"/>
    </input>

    <output>
        <tripinfo-output value="traces/transs50f1_s50_f0.5_random/0187_tripinfo.xml"/>
        <collision-output value="traces/transs50f1_s50_f0.5_random/0187_collisions.xml"/>
        <statistic-output value="traces/transs50f1_s50_f0.5_random/0187_statistics.xml"/>
    </output>

    <processing>
        <collision.action value="teleport"/>
        <collision.check-junctions value="true"/>
        <time-to-teleport value="-1"/>
        <waiting-time-memory value="1000"/>
        <max-depart-delay value="-1"/>
        <default.speeddev value="0.1"/>
    </processing>

    <report>
        <no-warnings value="true"/>
    </report>

    <ssm_device>
        <device.ssm.probability value="1.0"/>
        <device.ssm.measures value="BR"/>
        <device.ssm.file value="/Users/finn/Code/CausalKnowledgeTransfer-4-SafeRL/traces/transs50f1_s50_f0.5_random/0187_ssm.xml"/>
    </ssm_device>

    <traci_server>
        <remote-port value="64721"/>
    </traci_server>

    <random_number>
        <random value="true"/>
    </random_number>

</configuration>
-->

<tripinfos xmlns:xsi="http://www.w3.org/2001/XMLSchema-instance" xsi:noNamespaceSchemaLocation="http://sumo.dlr.de/xsd/tripinfo_file.xsd">
    <tripinfo id="westEastTop.0" depart="3.00" departLane="westJunction_1" departPos="5.10" departSpeed="27.78" departDelay="0.07" arrival="40.00" arrivalLane="junctionEast_1" arrivalPos="492.80" arrivalSpeed="27.18" duration="37.00" routeLength="994.90" waitingTime="0.00" waitingCount="0" stopTime="0.00" timeLoss="0.88" rerouteNo="0" devices="tripinfo_westEastTop.0 ssm_westEastTop.0" vType="carCustom" speedFactor="0.95" vaporized=""/>
    <tripinfo id="westEastTop.1" depart="5.00" departLane="westJunction_1" departPos="5.10" departSpeed="27.57" departDelay="0.09" arrival="48.00" arrivalLane="junctionEast_1" arrivalPos="492.80" arrivalSpeed="27.14" duration="43.00" routeLength="994.90" waitingTime="0.00" waitingCount="0" stopTime="0.00" timeLoss="6.42" rerouteNo="0" devices="tripinfo_westEastTop.1 ssm_westEastTop.1" vType="carCustom" speedFactor="1.03" vaporized=""/>
    <tripinfo id="westEastTop.2" depart="8.00" departLane="westJunction_1" departPos="5.10" departSpeed="19.88" departDelay="0.27" arrival="55.00" arrivalLane="junctionEast_1" arrivalPos="492.80" arrivalSpeed="26.80" duration="47.00" routeLength="994.90" waitingTime="0.00" waitingCount="0" stopTime="0.00" timeLoss="10.48" rerouteNo="0" devices="tripinfo_westEastTop.2 ssm_westEastTop.2" vType="carCustom" speedFactor="1.01" vaporized=""/>
    <tripinfo id="southEast.0" depart="13.00" departLane="southJunction_0" departPos="5.10" departSpeed="27.78" departDelay="0.22" arrival="57.00" arrivalLane="junctionEast_0" arrivalPos="492.80" arrivalSpeed="26.49" duration="44.00" routeLength="989.53" waitingTime="0.00" waitingCount="0" stopTime="0.00" timeLoss="6.28" rerouteNo="0" devices="tripinfo_southEast.0 ssm_southEast.0" vType="carCustom" speedFactor="1.01" vaporized=""/>
    <tripinfo id="westEastBottom0.0" depart="15.00" departLane="westJunction_0" departPos="5.10" departSpeed="27.78" departDelay="0.03" arrival="61.00" arrivalLane="junctionEast_1" arrivalPos="492.80" arrivalSpeed="26.61" duration="46.00" routeLength="994.90" waitingTime="0.00" waitingCount="0" stopTime="0.00" timeLoss="10.14" rerouteNo="0" devices="tripinfo_westEastBottom0.0 ssm_westEastBottom0.0" vType="carCustom" speedFactor="0.89" vaporized=""/>
    <tripinfo id="westEastBottom0.1" depart="23.00" departLane="westJunction_0" departPos="5.10" departSpeed="27.78" departDelay="0.08" arrival="68.00" arrivalLane="junctionEast_1" arrivalPos="492.80" arrivalSpeed="27.77" duration="45.00" routeLength="994.90" waitingTime="0.00" waitingCount="0" stopTime="0.00" timeLoss="8.59" rerouteNo="0" devices="tripinfo_westEastBottom0.1 ssm_westEastBottom0.1" vType="carCustom" speedFactor="1.06" vaporized=""/>
    <tripinfo id="westEastTop.3" depart="22.00" departLane="westJunction_1" departPos="5.10" departSpeed="17.14" departDelay="0.08" arrival="74.00" arrivalLane="junctionEast_1" arrivalPos="492.80" arrivalSpeed="27.72" duration="52.00" routeLength="994.90" waitingTime="0.00" waitingCount="0" stopTime="0.00" timeLoss="15.91" rerouteNo="0" devices="tripinfo_westEastTop.3 ssm_westEastTop.3" vType="carCustom" speedFactor="0.86" vaporized=""/>
    <tripinfo id="westEastTop.4" depart="26.00" departLane="westJunction_1" departPos="5.10" departSpeed="20.50" departDelay="0.50" arrival="80.00" arrivalLane="junctionEast_1" arrivalPos="492.80" arrivalSpeed="27.03" duration="54.00" routeLength="994.90" waitingTime="0.00" waitingCount="0" stopTime="0.00" timeLoss="17.99" rerouteNo="0" devices="tripinfo_westEastTop.4 ssm_westEastTop.4" vType="carCustom" speedFactor="1.09" vaporized=""/>
    <tripinfo id="southNorth.0" depart="19.00" departLane="southJunction_1" departPos="5.10" departSpeed="27.78" departDelay="0.64" arrival="84.00" arrivalLane="junctionNorth_0" arrivalPos="492.80" arrivalSpeed="27.48" duration="65.00" routeLength="995.01" waitingTime="17.00" waitingCount="1" stopTime="0.00" timeLoss="28.95" rerouteNo="0" devices="tripinfo_southNorth.0 ssm_southNorth.0" vType="carCustom" speedFactor="0.70" vaporized=""/>
    <tripinfo id="westEastTop.5" depart="30.00" departLane="westJunction_1" departPos="5.10" departSpeed="16.08" departDelay="0.26" arrival="88.00" arrivalLane="junctionEast_1" arrivalPos="492.80" arrivalSpeed="26.83" duration="58.00" routeLength="994.90" waitingTime="0.00" waitingCount="0" stopTime="0.00" timeLoss="21.95" rerouteNo="0" devices="tripinfo_westEastTop.5 ssm_westEastTop.5" vType="carCustom" speedFactor="1.03" vaporized=""/>
    <tripinfo id="southNorth.1" depart="27.00" departLane="southJunction_1" departPos="5.10" departSpeed="27.70" departDelay="0.75" arrival="90.00" arrivalLane="junctionNorth_0" arrivalPos="492.80" arrivalSpeed="26.70" duration="63.00" routeLength="995.01" waitingTime="4.00" waitingCount="1" stopTime="0.00" timeLoss="26.94" rerouteNo="0" devices="tripinfo_southNorth.1 ssm_southNorth.1" vType="carCustom" speedFactor="1.08" vaporized=""/>
    <tripinfo id="southEast.1" depart="34.00" departLane="southJunction_0" departPos="5.10" departSpeed="10.39" departDelay="0.92" arrival="90.00" arrivalLane="junctionEast_0" arrivalPos="492.80" arrivalSpeed="27.64" duration="56.00" routeLength="989.53" waitingTime="0.00" waitingCount="0" stopTime="0.00" timeLoss="18.69" rerouteNo="0" devices="tripinfo_southEast.1 ssm_southEast.1" vType="carCustom" speedFactor="1.06" vaporized=""/>
    <tripinfo id="westEastBottom0.2" depart="39.00" departLane="westJunction_0" departPos="5.10" departSpeed="27.78" departDelay="0.29" arrival="94.00" arrivalLane="junctionEast_1" arrivalPos="492.80" arrivalSpeed="27.07" duration="55.00" routeLength="994.90" waitingTime="0.00" waitingCount="0" stopTime="0.00" timeLoss="18.90" rerouteNo="0" devices="tripinfo_westEastBottom0.2 ssm_westEastBottom0.2" vType="carCustom" speedFactor="0.92" vaporized=""/>
    <tripinfo id="southNorth.2" depart="29.00" departLane="southJunction_1" departPos="5.10" departSpeed="26.73" departDelay="1.10" arrival="97.00" arrivalLane="junctionNorth_0" arrivalPos="492.80" arrivalSpeed="26.54" duration="68.00" routeLength="995.01" waitingTime="2.00" waitingCount="1" stopTime="0.00" timeLoss="31.63" rerouteNo="0" devices="tripinfo_southNorth.2 ssm_southNorth.2" vType="carCustom" speedFactor="1.00" vaporized=""/>
    <tripinfo id="southEast.2" depart="36.00" departLane="southJunction_0" departPos="5.10" departSpeed="13.24" departDelay="2.84" arrival="97.00" arrivalLane="junctionEast_0" arrivalPos="492.80" arrivalSpeed="27.41" duration="61.00" routeLength="989.53" waitingTime="0.00" waitingCount="0" stopTime="0.00" timeLoss="24.12" rerouteNo="0" devices="tripinfo_southEast.2 ssm_southEast.2" vType="carCustom" speedFactor="1.05" vaporized=""/>
    <tripinfo id="westEastTop.6" depart="32.00" departLane="westJunction_1" departPos="5.10" departSpeed="14.40" departDelay="1.64" arrival="100.00" arrivalLane="junctionEast_1" arrivalPos="492.80" arrivalSpeed="27.52" duration="68.00" routeLength="994.90" waitingTime="0.00" waitingCount="0" stopTime="0.00" timeLoss="31.97" rerouteNo="0" devices="tripinfo_westEastTop.6 ssm_westEastTop.6" vType="carCustom" speedFactor="0.89" vaporized=""/>
    <tripinfo id="southNorth.3" depart="31.00" departLane="southJunction_1" departPos="5.10" departSpeed="21.26" departDelay="3.08" arrival="103.00" arrivalLane="junctionNorth_0" arrivalPos="492.80" arrivalSpeed="26.81" duration="72.00" routeLength="995.01" waitingTime="0.00" waitingCount="0" stopTime="0.00" timeLoss="35.26" rerouteNo="0" devices="tripinfo_southNorth.3 ssm_southNorth.3" vType="carCustom" speedFactor="0.88" vaporized=""/>
    <tripinfo id="westEastTop.7" depart="34.00" departLane="westJunction_1" departPos="5.10" departSpeed="9.83" departDelay="1.17" arrival="106.00" arrivalLane="junctionEast_1" arrivalPos="492.80" arrivalSpeed="26.69" duration="72.00" routeLength="994.90" waitingTime="0.00" waitingCount="0" stopTime="0.00" timeLoss="35.60" rerouteNo="0" devices="tripinfo_westEastTop.7 ssm_westEastTop.7" vType="carCustom" speedFactor="0.98" vaporized=""/>
    <tripinfo id="southEast.3" depart="38.00" departLane="southJunction_0" departPos="5.10" departSpeed="9.07" departDelay="2.80" arrival="106.00" arrivalLane="junctionEast_0" arrivalPos="492.80" arrivalSpeed="26.54" duration="68.00" routeLength="989.53" waitingTime="0.00" waitingCount="0" stopTime="0.00" timeLoss="31.41" rerouteNo="0" devices="tripinfo_southEast.3 ssm_southEast.3" vType="carCustom" speedFactor="1.03" vaporized=""/>
    <tripinfo id="westEastTop.8" depart="37.00" departLane="westJunction_1" departPos="5.10" departSpeed="7.77" departDelay="3.63" arrival="112.00" arrivalLane="junctionEast_1" arrivalPos="492.80" arrivalSpeed="27.67" duration="75.00" routeLength="994.90" waitingTime="0.00" waitingCount="0" stopTime="0.00" timeLoss="38.26" rerouteNo="0" devices="tripinfo_westEastTop.8 ssm_westEastTop.8" vType="carCustom" speedFactor="1.06" vaporized=""/>
    <tripinfo id="westEastBottom0.3" depart="60.00" departLane="westJunction_0" departPos="5.10" departSpeed="27.78" departDelay="0.99" arrival="112.00" arrivalLane="junctionEast_0" arrivalPos="492.80" arrivalSpeed="26.51" duration="52.00" routeLength="994.90" waitingTime="0.00" waitingCount="0" stopTime="0.00" timeLoss="16.18" rerouteNo="0" devices="tripinfo_westEastBottom0.3 ssm_westEastBottom0.3" vType="carCustom" speedFactor="0.88" vaporized=""/>
    <tripinfo id="westEastTop.9" depart="40.00" departLane="westJunction_1" departPos="5.10" departSpeed="6.09" departDelay="2.66" arrival="117.00" arrivalLane="junctionEast_1" arrivalPos="492.80" arrivalSpeed="27.42" duration="77.00" routeLength="994.90" waitingTime="0.00" waitingCount="0" stopTime="0.00" timeLoss="40.90" rerouteNo="0" devices="tripinfo_westEastTop.9 ssm_westEastTop.9" vType="carCustom" speedFactor="0.86" vaporized=""/>
    <tripinfo id="westEastBottom0.4" depart="62.00" departLane="westJunction_0" departPos="5.10" departSpeed="26.38" departDelay="0.13" arrival="118.00" arrivalLane="junctionEast_0" arrivalPos="492.80" arrivalSpeed="27.14" duration="56.00" routeLength="994.90" waitingTime="0.00" waitingCount="0" stopTime="0.00" timeLoss="20.12" rerouteNo="0" devices="tripinfo_westEastBottom0.4 ssm_westEastBottom0.4" vType="carCustom" speedFactor="1.02" vaporized=""/>
    <tripinfo id="westEastTop.10" depart="43.00" departLane="westJunction_1" departPos="5.10" departSpeed="5.50" departDelay="5.47" arrival="123.00" arrivalLane="junctionEast_1" arrivalPos="492.80" arrivalSpeed="27.61" duration="80.00" routeLength="994.90" waitingTime="0.00" waitingCount="0" stopTime="0.00" timeLoss="43.20" rerouteNo="0" devices="tripinfo_westEastTop.10 ssm_westEastTop.10" vType="carCustom" speedFactor="0.97" vaporized=""/>
    <tripinfo id="westEastBottom0.5" depart="64.00" departLane="westJunction_0" departPos="5.10" departSpeed="20.81" departDelay="1.75" arrival="124.00" arrivalLane="junctionEast_0" arrivalPos="492.80" arrivalSpeed="26.83" duration="60.00" routeLength="994.90" waitingTime="0.00" waitingCount="0" stopTime="0.00" timeLoss="23.69" rerouteNo="0" devices="tripinfo_westEastBottom0.5 ssm_westEastBottom0.5" vType="carCustom" speedFactor="1.02" vaporized=""/>
    <tripinfo id="southNorth.4" depart="33.00" departLane="southJunction_1" departPos="5.10" departSpeed="15.89" departDelay="4.29" arrival="126.00" arrivalLane="junctionNorth_0" arrivalPos="492.80" arrivalSpeed="26.96" duration="93.00" routeLength="995.01" waitingTime="22.00" waitingCount="1" stopTime="0.00" timeLoss="57.05" rerouteNo="0" devices="tripinfo_southNorth.4 ssm_southNorth.4" vType="carCustom" speedFactor="1.16" vaporized=""/>
    <tripinfo id="westEastTop.11" depart="46.00" departLane="westJunction_1" departPos="5.10" departSpeed="5.34" departDelay="7.89" arrival="128.00" arrivalLane="junctionEast_1" arrivalPos="492.80" arrivalSpeed="26.60" duration="82.00" routeLength="994.90" waitingTime="0.00" waitingCount="0" stopTime="0.00" timeLoss="45.51" rerouteNo="0" devices="tripinfo_westEastTop.11 ssm_westEastTop.11" vType="carCustom" speedFactor="0.98" vaporized=""/>
    <tripinfo id="southNorth.5" depart="35.00" departLane="southJunction_1" departPos="5.10" departSpeed="11.02" departDelay="1.95" arrival="132.00" arrivalLane="junctionNorth_0" arrivalPos="492.80" arrivalSpeed="27.13" duration="97.00" routeLength="995.01" waitingTime="18.00" waitingCount="1" stopTime="0.00" timeLoss="60.93" rerouteNo="0" devices="tripinfo_southNorth.5 ssm_southNorth.5" vType="carCustom" speedFactor="1.14" vaporized=""/>
    <tripinfo id="westEastBottom0.6" depart="67.00" departLane="westJunction_0" departPos="5.10" departSpeed="13.38" departDelay="0.54" arrival="133.00" arrivalLane="junctionEast_1" arrivalPos="492.80" arrivalSpeed="26.59" duration="66.00" routeLength="994.90" waitingTime="0.00" waitingCount="0" stopTime="0.00" timeLoss="30.02" rerouteNo="0" devices="tripinfo_westEastBottom0.6 ssm_westEastBottom0.6" vType="carCustom" speedFactor="1.00" vaporized=""/>
    <tripinfo id="westEastTop.12" depart="58.00" departLane="westJunction_1" departPos="5.10" departSpeed="8.34" departDelay="0.51" arrival="138.00" arrivalLane="junctionEast_1" arrivalPos="492.80" arrivalSpeed="27.02" duration="80.00" routeLength="994.90" waitingTime="1.00" waitingCount="1" stopTime="0.00" timeLoss="43.97" rerouteNo="0" devices="tripinfo_westEastTop.12 ssm_westEastTop.12" vType="carCustom" speedFactor="0.85" vaporized=""/>
    <tripinfo id="westEastBottom0.7" depart="75.00" departLane="westJunction_0" departPos="5.10" departSpeed="11.24" departDelay="0.24" arrival="139.00" arrivalLane="junctionEast_0" arrivalPos="492.80" arrivalSpeed="26.70" duration="64.00" routeLength="994.90" waitingTime="0.00" waitingCount="0" stopTime="0.00" timeLoss="27.80" rerouteNo="0" devices="tripinfo_westEastBottom0.7 ssm_westEastBottom0.7" vType="carCustom" speedFactor="1.08" vaporized=""/>
    <tripinfo id="westEastTop.13" depart="62.00" departLane="westJunction_1" departPos="5.10" departSpeed="11.90" departDelay="0.63" arrival="143.00" arrivalLane="junctionEast_1" arrivalPos="492.80" arrivalSpeed="26.58" duration="81.00" routeLength="994.90" waitingTime="0.00" waitingCount="0" stopTime="0.00" timeLoss="44.91" rerouteNo="0" devices="tripinfo_westEastTop.13 ssm_westEastTop.13" vType="carCustom" speedFactor="1.01" vaporized=""/>
    <tripinfo id="southEast.4" depart="86.00" departLane="southJunction_0" departPos="5.10" departSpeed="27.78" departDelay="0.84" arrival="144.00" arrivalLane="junctionEast_0" arrivalPos="492.80" arrivalSpeed="26.60" duration="58.00" routeLength="989.53" waitingTime="0.00" waitingCount="0" stopTime="0.00" timeLoss="21.03" rerouteNo="0" devices="tripinfo_southEast.4 ssm_southEast.4" vType="carCustom" speedFactor="1.22" vaporized=""/>
    <tripinfo id="southNorth.6" depart="47.00" departLane="southJunction_1" departPos="5.10" departSpeed="11.89" departDelay="0.91" arrival="146.00" arrivalLane="junctionNorth_0" arrivalPos="492.80" arrivalSpeed="27.53" duration="99.00" routeLength="995.01" waitingTime="24.00" waitingCount="2" stopTime="0.00" timeLoss="62.61" rerouteNo="0" devices="tripinfo_southNorth.6 ssm_southNorth.6" vType="carCustom" speedFactor="1.20" vaporized=""/>
    <tripinfo id="westEastTop.14" depart="65.00" departLane="westJunction_1" departPos="5.10" departSpeed="10.71" departDelay="0.56" arrival="148.00" arrivalLane="junctionEast_1" arrivalPos="492.80" arrivalSpeed="27.18" duration="83.00" routeLength="994.90" waitingTime="0.00" waitingCount="0" stopTime="0.00" timeLoss="46.93" rerouteNo="0" devices="tripinfo_westEastTop.14 ssm_westEastTop.14" vType="carCustom" speedFactor="0.87" vaporized=""/>
    <tripinfo id="westEastBottom0.8" depart="79.00" departLane="westJunction_0" departPos="5.10" departSpeed="14.53" departDelay="0.85" arrival="149.00" arrivalLane="junctionEast_0" arrivalPos="492.80" arrivalSpeed="26.67" duration="70.00" routeLength="994.90" waitingTime="0.00" waitingCount="0" stopTime="0.00" timeLoss="34.05" rerouteNo="0" devices="tripinfo_westEastBottom0.8 ssm_westEastBottom0.8" vType="carCustom" speedFactor="0.95" vaporized=""/>
    <tripinfo id="westEastTop.15" depart="71.00" departLane="westJunction_1" departPos="5.10" departSpeed="8.95" departDelay="0.49" arrival="153.00" arrivalLane="junctionEast_1" arrivalPos="492.80" arrivalSpeed="27.00" duration="82.00" routeLength="994.90" waitingTime="0.00" waitingCount="0" stopTime="0.00" timeLoss="45.95" rerouteNo="0" devices="tripinfo_westEastTop.15 ssm_westEastTop.15" vType="carCustom" speedFactor="1.00" vaporized=""/>
    <tripinfo id="westEastBottom0.9" depart="81.00" departLane="westJunction_0" departPos="5.10" departSpeed="12.50" departDelay="0.90" arrival="155.00" arrivalLane="junctionEast_0" arrivalPos="492.80" arrivalSpeed="26.67" duration="74.00" routeLength="994.90" waitingTime="1.00" waitingCount="1" stopTime="0.00" timeLoss="37.64" rerouteNo="0" devices="tripinfo_westEastBottom0.9 ssm_westEastBottom0.9" vType="carCustom" speedFactor="0.95" vaporized=""/>
    <tripinfo id="southNorth.7" depart="66.00" departLane="southJunction_1" departPos="5.10" departSpeed="13.43" departDelay="0.97" arrival="157.00" arrivalLane="junctionNorth_0" arrivalPos="492.80" arrivalSpeed="27.57" duration="91.00" routeLength="995.01" waitingTime="19.00" waitingCount="3" stopTime="0.00" timeLoss="54.56" rerouteNo="0" devices="tripinfo_southNorth.7 ssm_southNorth.7" vType="carCustom" speedFactor="0.95" vaporized=""/>
    <tripinfo id="westEastTop.16" depart="80.00" departLane="westJunction_1" departPos="5.10" departSpeed="10.06" departDelay="0.70" arrival="158.00" arrivalLane="junctionEast_1" arrivalPos="492.80" arrivalSpeed="27.58" duration="78.00" routeLength="994.90" waitingTime="0.00" waitingCount="0" stopTime="0.00" timeLoss="41.79" rerouteNo="0" devices="tripinfo_westEastTop.16 ssm_westEastTop.16" vType="carCustom" speedFactor="1.03" vaporized=""/>
    <tripinfo id="southEast.5" depart="102.00" departLane="southJunction_0" departPos="5.10" departSpeed="16.95" departDelay="0.95" arrival="160.00" arrivalLane="junctionEast_0" arrivalPos="492.80" arrivalSpeed="27.30" duration="58.00" routeLength="989.53" waitingTime="0.00" waitingCount="0" stopTime="0.00" timeLoss="21.74" rerouteNo="0" devices="tripinfo_southEast.5 ssm_southEast.5" vType="carCustom" speedFactor="1.09" vaporized=""/>
    <tripinfo id="westEastTop.17" depart="82.00" departLane="westJunction_1" departPos="5.10" departSpeed="13.51" departDelay="1.65" arrival="164.00" arrivalLane="junctionEast_1" arrivalPos="492.80" arrivalSpeed="26.55" duration="82.00" routeLength="994.90" waitingTime="5.00" waitingCount="1" stopTime="0.00" timeLoss="45.30" rerouteNo="0" devices="tripinfo_westEastTop.17 ssm_westEastTop.17" vType="carCustom" speedFactor="1.01" vaporized=""/>
    <tripinfo id="southNorth.8" depart="77.00" departLane="southJunction_1" departPos="5.10" departSpeed="21.25" departDelay="0.34" arrival="166.00" arrivalLane="junctionNorth_0" arrivalPos="492.80" arrivalSpeed="27.29" duration="89.00" routeLength="995.01" waitingTime="15.00" waitingCount="3" stopTime="0.00" timeLoss="52.24" rerouteNo="0" devices="tripinfo_southNorth.8 ssm_southNorth.8" vType="carCustom" speedFactor="1.00" vaporized=""/>
    <tripinfo id="westEastBottom0.10" depart="94.00" departLane="westJunction_0" departPos="5.10" departSpeed="12.02" departDelay="0.02" arrival="166.00" arrivalLane="junctionEast_0" arrivalPos="492.80" arrivalSpeed="26.58" duration="72.00" routeLength="994.90" waitingTime="3.00" waitingCount="1" stopTime="0.00" timeLoss="35.38" rerouteNo="0" devices="tripinfo_westEastBottom0.10 ssm_westEastBottom0.10" vType="carCustom" speedFactor="1.00" vaporized=""/>
    <tripinfo id="westEastTop.18" depart="84.00" departLane="westJunction_1" departPos="5.10" departSpeed="9.34" departDelay="1.11" arrival="169.00" arrivalLane="junctionEast_1" arrivalPos="492.80" arrivalSpeed="27.46" duration="85.00" routeLength="994.90" waitingTime="0.00" waitingCount="0" stopTime="0.00" timeLoss="48.82" rerouteNo="0" devices="tripinfo_westEastTop.18 ssm_westEastTop.18" vType="carCustom" speedFactor="1.05" vaporized=""/>
    <tripinfo id="southEast.6" depart="107.00" departLane="southJunction_0" departPos="5.10" departSpeed="25.07" departDelay="0.21" arrival="171.00" arrivalLane="junctionEast_0" arrivalPos="492.80" arrivalSpeed="26.62" duration="64.00" routeLength="989.53" waitingTime="1.00" waitingCount="1" stopTime="0.00" timeLoss="27.44" rerouteNo="0" devices="tripinfo_southEast.6 ssm_southEast.6" vType="carCustom" speedFactor="1.23" vaporized=""/>
    <tripinfo id="westEastTop.19" depart="87.00" departLane="westJunction_1" departPos="5.10" departSpeed="5.98" departDelay="3.84" arrival="175.00" arrivalLane="junctionEast_1" arrivalPos="492.80" arrivalSpeed="26.76" duration="88.00" routeLength="994.90" waitingTime="1.00" waitingCount="1" stopTime="0.00" timeLoss="51.29" rerouteNo="0" devices="tripinfo_westEastTop.19 ssm_westEastTop.19" vType="carCustom" speedFactor="1.13" vaporized=""/>
    <tripinfo id="westEastBottom0.11" depart="106.00" departLane="westJunction_0" departPos="5.10" departSpeed="16.29" departDelay="0.86" arrival="176.00" arrivalLane="junctionEast_0" arrivalPos="492.80" arrivalSpeed="26.82" duration="70.00" routeLength="994.90" waitingTime="4.00" waitingCount="1" stopTime="0.00" timeLoss="34.14" rerouteNo="0" devices="tripinfo_westEastBottom0.11 ssm_westEastBottom0.11" vType="carCustom" speedFactor="0.92" vaporized=""/>
    <tripinfo id="westEastTop.20" depart="90.00" departLane="westJunction_1" departPos="5.10" departSpeed="6.21" departDelay="4.93" arrival="180.00" arrivalLane="junctionEast_1" arrivalPos="492.80" arrivalSpeed="27.04" duration="90.00" routeLength="994.90" waitingTime="0.00" waitingCount="0" stopTime="0.00" timeLoss="53.65" rerouteNo="0" devices="tripinfo_westEastTop.20 ssm_westEastTop.20" vType="carCustom" speedFactor="0.98" vaporized=""/>
    <tripinfo id="westEastBottom0.12" depart="118.00" departLane="westJunction_0" departPos="5.10" departSpeed="15.39" departDelay="0.25" arrival="182.00" arrivalLane="junctionEast_0" arrivalPos="492.80" arrivalSpeed="27.41" duration="64.00" routeLength="994.90" waitingTime="0.00" waitingCount="0" stopTime="0.00" timeLoss="27.36" rerouteNo="0" devices="tripinfo_westEastBottom0.12 ssm_westEastBottom0.12" vType="carCustom" speedFactor="1.21" vaporized=""/>
    <tripinfo id="westEastTop.21" depart="93.00" departLane="westJunction_1" departPos="5.10" departSpeed="5.04" departDelay="4.11" arrival="185.00" arrivalLane="junctionEast_1" arrivalPos="492.80" arrivalSpeed="26.59" duration="92.00" routeLength="994.90" waitingTime="0.00" waitingCount="0" stopTime="0.00" timeLoss="55.92" rerouteNo="0" devices="tripinfo_westEastTop.21 ssm_westEastTop.21" vType="carCustom" speedFactor="1.00" vaporized=""/>
    <tripinfo id="southEast.7" depart="119.00" departLane="southJunction_0" departPos="5.10" departSpeed="18.04" departDelay="0.92" arrival="187.00" arrivalLane="junctionEast_0" arrivalPos="492.80" arrivalSpeed="27.40" duration="68.00" routeLength="989.53" waitingTime="3.00" waitingCount="1" stopTime="0.00" timeLoss="31.03" rerouteNo="0" devices="tripinfo_southEast.7 ssm_southEast.7" vType="carCustom" speedFactor="0.94" vaporized=""/>
    <tripinfo id="westEastTop.22" depart="96.00" departLane="westJunction_1" departPos="5.10" departSpeed="5.18" departDelay="6.51" arrival="190.00" arrivalLane="junctionEast_1" arrivalPos="492.80" arrivalSpeed="26.94" duration="94.00" routeLength="994.90" waitingTime="0.00" waitingCount="0" stopTime="0.00" timeLoss="57.88" rerouteNo="0" devices="tripinfo_westEastTop.22 ssm_westEastTop.22" vType="carCustom" speedFactor="1.01" vaporized=""/>
    <tripinfo id="southEast.8" depart="126.00" departLane="southJunction_0" departPos="5.10" departSpeed="22.96" departDelay="0.48" arrival="192.00" arrivalLane="junctionEast_0" arrivalPos="492.80" arrivalSpeed="27.05" duration="66.00" routeLength="989.53" waitingTime="0.00" waitingCount="0" stopTime="0.00" timeLoss="29.01" rerouteNo="0" devices="tripinfo_southEast.8 ssm_southEast.8" vType="carCustom" speedFactor="0.96" vaporized=""/>
    <tripinfo id="westEastTop.23" depart="100.00" departLane="westJunction_1" departPos="5.10" departSpeed="4.33" departDelay="6.95" arrival="195.00" arrivalLane="junctionEast_1" arrivalPos="492.80" arrivalSpeed="27.24" duration="95.00" routeLength="994.90" waitingTime="0.00" waitingCount="0" stopTime="0.00" timeLoss="58.85" rerouteNo="0" devices="tripinfo_westEastTop.23 ssm_westEastTop.23" vType="carCustom" speedFactor="1.16" vaporized=""/>
    <tripinfo id="southEast.9" depart="128.00" departLane="southJunction_0" departPos="5.10" departSpeed="22.45" departDelay="1.39" arrival="197.00" arrivalLane="junctionEast_0" arrivalPos="492.80" arrivalSpeed="26.70" duration="69.00" routeLength="989.53" waitingTime="0.00" waitingCount="0" stopTime="0.00" timeLoss="31.19" rerouteNo="0" devices="tripinfo_southEast.9 ssm_southEast.9" vType="carCustom" speedFactor="1.01" vaporized=""/>
    <tripinfo id="southNorth.9" depart="79.00" departLane="southJunction_1" departPos="5.10" departSpeed="24.84" departDelay="0.42" arrival="198.00" arrivalLane="junctionNorth_0" arrivalPos="492.80" arrivalSpeed="27.16" duration="119.00" routeLength="995.01" waitingTime="35.00" waitingCount="4" stopTime="0.00" timeLoss="82.75" rerouteNo="0" devices="tripinfo_southNorth.9 ssm_southNorth.9" vType="carCustom" speedFactor="0.91" vaporized=""/>
    <tripinfo id="westEastTop.24" depart="104.00" departLane="westJunction_1" departPos="5.10" departSpeed="4.40" departDelay="6.30" arrival="200.00" arrivalLane="junctionEast_1" arrivalPos="492.80" arrivalSpeed="27.11" duration="96.00" routeLength="994.90" waitingTime="0.00" waitingCount="0" stopTime="0.00" timeLoss="59.74" rerouteNo="0" devices="tripinfo_westEastTop.24 ssm_westEastTop.24" vType="carCustom" speedFactor="0.99" vaporized=""/>
    <tripinfo id="westEastBottom0.13" depart="136.00" departLane="westJunction_0" departPos="5.10" departSpeed="16.19" departDelay="0.26" arrival="202.00" arrivalLane="junctionEast_0" arrivalPos="492.80" arrivalSpeed="26.57" duration="66.00" routeLength="994.90" waitingTime="0.00" waitingCount="0" stopTime="0.00" timeLoss="29.37" rerouteNo="0" devices="tripinfo_westEastBottom0.13 ssm_westEastBottom0.13" vType="carCustom" speedFactor="0.92" vaporized=""/>
    <tripinfo id="southNorth.10" depart="81.00" departLane="southJunction_1" departPos="5.10" departSpeed="19.60" departDelay="0.31" arrival="204.00" arrivalLane="junctionNorth_0" arrivalPos="492.80" arrivalSpeed="27.67" duration="123.00" routeLength="995.01" waitingTime="28.00" waitingCount="3" stopTime="0.00" timeLoss="86.70" rerouteNo="0" devices="tripinfo_southNorth.10 ssm_southNorth.10" vType="carCustom" speedFactor="0.99" vaporized=""/>
    <tripinfo id="westEastTop.25" depart="107.00" departLane="westJunction_1" departPos="5.10" departSpeed="4.49" departDelay="7.86" arrival="205.00" arrivalLane="junctionEast_1" arrivalPos="492.80" arrivalSpeed="26.92" duration="98.00" routeLength="994.90" waitingTime="0.00" waitingCount="0" stopTime="0.00" timeLoss="61.51" rerouteNo="0" devices="tripinfo_westEastTop.25 ssm_westEastTop.25" vType="carCustom" speedFactor="1.02" vaporized=""/>
    <tripinfo id="southEast.10" depart="130.00" departLane="southJunction_0" departPos="5.10" departSpeed="17.17" departDelay="0.53" arrival="206.00" arrivalLane="junctionEast_0" arrivalPos="492.80" arrivalSpeed="27.68" duration="76.00" routeLength="989.53" waitingTime="0.00" waitingCount="0" stopTime="0.00" timeLoss="39.22" rerouteNo="0" devices="tripinfo_southEast.10 ssm_southEast.10" vType="carCustom" speedFactor="0.95" vaporized=""/>
    <tripinfo id="westEastTop.26" depart="111.00" departLane="westJunction_1" departPos="5.10" departSpeed="4.36" departDelay="9.56" arrival="210.00" arrivalLane="junctionEast_1" arrivalPos="492.80" arrivalSpeed="26.91" duration="99.00" routeLength="994.90" waitingTime="1.00" waitingCount="1" stopTime="0.00" timeLoss="62.65" rerouteNo="0" devices="tripinfo_westEastTop.26 ssm_westEastTop.26" vType="carCustom" speedFactor="1.02" vaporized=""/>