<?xml version="1.0" encoding="UTF-8"?>

<!-- generated on 2025-04-29 09:04:00 by Eclipse SUMO sumo Version 1.20.0
<configuration xmlns:xsi="http://www.w3.org/2001/XMLSchema-instance" xsi:noNamespaceSchemaLocation="http://sumo.dlr.de/xsd/sumoConfiguration.xsd">

    <input>
        <net-file value="nets/2lane_unprotected_right/2lane_unprotected_right.net.xml"/>
        <route-files value="nets/2lane_unprotected_right/2lane_unprotected_right.rou.xml"/>
    </input>

    <output>
        <tripinfo-output value="traces/transs50f1_s50_f0.5_random/0190_tripinfo.xml"/>
        <collision-output value="traces/transs50f1_s50_f0.5_random/0190_collisions.xml"/>
        <statistic-output value="traces/transs50f1_s50_f0.5_random/0190_statistics.xml"/>
    </output>

    <processing>
        <collision.action value="teleport"/>
        <collision.check-junctions value="true"/>
        <time-to-teleport value="-1"/>
        <waiting-time-memory value="1000"/>
        <max-depart-delay value="-1"/>
        <default.speeddev value="0.1"/>
    </processing>

    <report>
        <no-warnings value="true"/>
    </report>

    <ssm_device>
        <device.ssm.probability value="1.0"/>
        <device.ssm.measures value="BR"/>
        <device.ssm.file value="/Users/finn/Code/CausalKnowledgeTransfer-4-SafeRL/traces/transs50f1_s50_f0.5_random/0190_ssm.xml"/>
    </ssm_device>

    <traci_server>
        <remote-port value="64757"/>
    </traci_server>

    <random_number>
        <random value="true"/>
    </random_number>

</configuration>
-->

<tripinfos xmlns:xsi="http://www.w3.org/2001/XMLSchema-instance" xsi:noNamespaceSchemaLocation="http://sumo.dlr.de/xsd/tripinfo_file.xsd">
    <tripinfo id="westEastBottom0.2" depart="24.00" departLane="westJunction_0" departPos="5.10" departSpeed="13.20" departDelay="0.61" arrival="63.00" arrivalLane="junctionEast_0" arrivalPos="492.80" arrivalSpeed="8.79" duration="39.00" routeLength="994.90" waitingTime="0.00" waitingCount="0" stopTime="0.00" timeLoss="2.24" rerouteNo="0" devices="tripinfo_westEastBottom0.2 ssm_westEastBottom0.2" vType="carCustom" speedFactor="0.98" vaporized="teleport"/>
    <tripinfo id="westEastTop.0" depart="1.00" departLane="westJunction_1" departPos="5.10" departSpeed="13.89" departDelay="0.49" arrival="77.00" arrivalLane="junctionEast_0" arrivalPos="492.80" arrivalSpeed="12.64" duration="76.00" routeLength="994.90" waitingTime="0.00" waitingCount="0" stopTime="0.00" timeLoss="3.47" rerouteNo="0" devices="tripinfo_westEastTop.0 ssm_westEastTop.0" vType="carCustom" speedFactor="0.90" vaporized=""/>
    <tripinfo id="westEastTop.1" depart="4.00" departLane="westJunction_1" departPos="5.10" departSpeed="12.72" departDelay="0.67" arrival="80.00" arrivalLane="junctionEast_1" arrivalPos="492.80" arrivalSpeed="13.53" duration="76.00" routeLength="994.90" waitingTime="0.00" waitingCount="0" stopTime="0.00" timeLoss="4.34" rerouteNo="0" devices="tripinfo_westEastTop.1 ssm_westEastTop.1" vType="carCustom" speedFactor="1.16" vaporized=""/>
    <tripinfo id="westEastBottom0.0" depart="4.00" departLane="westJunction_0" departPos="5.10" departSpeed="13.89" departDelay="0.29" arrival="80.00" arrivalLane="junctionEast_0" arrivalPos="492.80" arrivalSpeed="12.70" duration="76.00" routeLength="994.90" waitingTime="0.00" waitingCount="0" stopTime="0.00" timeLoss="4.29" rerouteNo="0" devices="tripinfo_westEastBottom0.0 ssm_westEastBottom0.0" vType="carCustom" speedFactor="0.80" vaporized=""/>
    <tripinfo id="westEastTop.2" depart="7.00" departLane="westJunction_1" departPos="5.10" departSpeed="12.35" departDelay="0.73" arrival="85.00" arrivalLane="junctionEast_0" arrivalPos="492.80" arrivalSpeed="13.31" duration="78.00" routeLength="994.90" waitingTime="0.00" waitingCount="0" stopTime="0.00" timeLoss="5.52" rerouteNo="0" devices="tripinfo_westEastTop.2 ssm_westEastTop.2" vType="carCustom" speedFactor="0.87" vaporized=""/>
    <tripinfo id="southNorth.0" depart="4.00" departLane="southJunction_1" departPos="5.10" departSpeed="13.89" departDelay="0.38" arrival="91.00" arrivalLane="junctionNorth_0" arrivalPos="492.80" arrivalSpeed="13.37" duration="87.00" routeLength="995.01" waitingTime="6.00" waitingCount="1" stopTime="0.00" timeLoss="15.01" rerouteNo="0" devices="tripinfo_southNorth.0 ssm_southNorth.0" vType="carCustom" speedFactor="1.06" vaporized=""/>
    <tripinfo id="westEastBottom0.1" depart="19.00" departLane="westJunction_0" departPos="5.10" departSpeed="13.14" departDelay="0.85" arrival="95.00" arrivalLane="junctionEast_0" arrivalPos="492.80" arrivalSpeed="12.75" duration="76.00" routeLength="994.90" waitingTime="0.00" waitingCount="0" stopTime="0.00" timeLoss="3.89" rerouteNo="0" devices="tripinfo_westEastBottom0.1 ssm_westEastBottom0.1" vType="carCustom" speedFactor="0.97" vaporized=""/>
    <tripinfo id="westEastTop.3" depart="12.00" departLane="westJunction_1" departPos="5.10" departSpeed="11.17" departDelay="0.61" arrival="96.00" arrivalLane="junctionEast_1" arrivalPos="492.80" arrivalSpeed="12.88" duration="84.00" routeLength="994.90" waitingTime="2.00" waitingCount="1" stopTime="0.00" timeLoss="11.80" rerouteNo="0" devices="tripinfo_westEastTop.3 ssm_westEastTop.3" vType="carCustom" speedFactor="0.96" vaporized=""/>
    <tripinfo id="westEastTop.4" depart="17.00" departLane="westJunction_1" departPos="5.10" departSpeed="13.69" departDelay="0.82" arrival="99.00" arrivalLane="junctionEast_0" arrivalPos="492.80" arrivalSpeed="13.88" duration="82.00" routeLength="994.90" waitingTime="0.00" waitingCount="0" stopTime="0.00" timeLoss="9.78" rerouteNo="0" devices="tripinfo_westEastTop.4 ssm_westEastTop.4" vType="carCustom" speedFactor="0.93" vaporized=""/>
    <tripinfo id="westEastTop.5" depart="19.00" departLane="westJunction_1" departPos="5.10" departSpeed="12.73" departDelay="0.07" arrival="103.00" arrivalLane="junctionEast_0" arrivalPos="492.80" arrivalSpeed="13.45" duration="84.00" routeLength="994.90" waitingTime="0.00" waitingCount="0" stopTime="0.00" timeLoss="11.54" rerouteNo="0" devices="tripinfo_westEastTop.5 ssm_westEastTop.5" vType="carCustom" speedFactor="1.10" vaporized=""/>
    <tripinfo id="westEastTop.6" depart="24.00" departLane="westJunction_1" departPos="5.10" departSpeed="11.27" departDelay="0.35" arrival="105.00" arrivalLane="junctionEast_0" arrivalPos="492.80" arrivalSpeed="12.87" duration="81.00" routeLength="994.90" waitingTime="0.00" waitingCount="0" stopTime="0.00" timeLoss="8.88" rerouteNo="0" devices="tripinfo_westEastTop.6 ssm_westEastTop.6" vType="carCustom" speedFactor="1.32" vaporized=""/>
    <tripinfo id="southEast.0" depart="17.00" departLane="southJunction_0" departPos="5.10" departSpeed="13.89" departDelay="0.92" arrival="107.00" arrivalLane="junctionEast_0" arrivalPos="492.80" arrivalSpeed="13.20" duration="90.00" routeLength="989.53" waitingTime="3.00" waitingCount="1" stopTime="0.00" timeLoss="18.28" rerouteNo="0" devices="tripinfo_southEast.0 ssm_southEast.0" vType="carCustom" speedFactor="1.13" vaporized=""/>
    <tripinfo id="westEastTop.7" depart="26.00" departLane="westJunction_1" departPos="5.10" departSpeed="12.85" departDelay="0.42" arrival="109.00" arrivalLane="junctionEast_1" arrivalPos="492.80" arrivalSpeed="12.68" duration="83.00" routeLength="994.90" waitingTime="0.00" waitingCount="0" stopTime="0.00" timeLoss="10.82" rerouteNo="0" devices="tripinfo_westEastTop.7 ssm_westEastTop.7" vType="carCustom" speedFactor="0.95" vaporized=""/>
    <tripinfo id="southNorth.1" depart="14.00" departLane="southJunction_1" departPos="5.10" departSpeed="13.42" departDelay="0.20" arrival="111.00" arrivalLane="junctionNorth_0" arrivalPos="492.80" arrivalSpeed="12.93" duration="97.00" routeLength="995.01" waitingTime="14.00" waitingCount="1" stopTime="0.00" timeLoss="24.79" rerouteNo="0" devices="tripinfo_southNorth.1 ssm_southNorth.1" vType="carCustom" speedFactor="1.02" vaporized=""/>
    <tripinfo id="southEast.1" depart="19.00" departLane="southJunction_0" departPos="5.10" departSpeed="12.98" departDelay="2.56" arrival="111.00" arrivalLane="junctionEast_0" arrivalPos="492.80" arrivalSpeed="12.88" duration="92.00" routeLength="989.53" waitingTime="0.00" waitingCount="0" stopTime="0.00" timeLoss="19.16" rerouteNo="0" devices="tripinfo_southEast.1 ssm_southEast.1" vType="carCustom" speedFactor="1.09" vaporized=""/>
    <tripinfo id="southEast.2" depart="28.00" departLane="southJunction_0" departPos="5.10" departSpeed="11.80" departDelay="0.68" arrival="114.00" arrivalLane="junctionEast_0" arrivalPos="492.80" arrivalSpeed="13.34" duration="86.00" routeLength="989.53" waitingTime="1.00" waitingCount="1" stopTime="0.00" timeLoss="13.68" rerouteNo="0" devices="tripinfo_southEast.2 ssm_southEast.2" vType="carCustom" speedFactor="1.08" vaporized=""/>
    <tripinfo id="westEastTop.8" depart="28.00" departLane="westJunction_1" departPos="5.10" departSpeed="9.85" departDelay="0.88" arrival="116.00" arrivalLane="junctionEast_1" arrivalPos="492.80" arrivalSpeed="13.55" duration="88.00" routeLength="994.90" waitingTime="1.00" waitingCount="1" stopTime="0.00" timeLoss="15.51" rerouteNo="0" devices="tripinfo_westEastTop.8 ssm_westEastTop.8" vType="carCustom" speedFactor="1.03" vaporized=""/>
    <tripinfo id="southEast.3" depart="31.00" departLane="southJunction_0" departPos="5.10" departSpeed="13.64" departDelay="0.01" arrival="117.00" arrivalLane="junctionEast_0" arrivalPos="492.80" arrivalSpeed="13.38" duration="86.00" routeLength="989.53" waitingTime="0.00" waitingCount="0" stopTime="0.00" timeLoss="14.16" rerouteNo="0" devices="tripinfo_southEast.3 ssm_southEast.3" vType="carCustom" speedFactor="1.02" vaporized=""/>
    <tripinfo id="westEastTop.9" depart="34.00" departLane="westJunction_1" departPos="5.10" departSpeed="10.43" departDelay="0.65" arrival="119.00" arrivalLane="junctionEast_1" arrivalPos="492.80" arrivalSpeed="12.68" duration="85.00" routeLength="994.90" waitingTime="0.00" waitingCount="0" stopTime="0.00" timeLoss="13.33" rerouteNo="0" devices="tripinfo_westEastTop.9 ssm_westEastTop.9" vType="carCustom" speedFactor="1.20" vaporized=""/>
    <tripinfo id="southNorth.2" depart="31.00" departLane="southJunction_1" departPos="5.10" departSpeed="13.80" departDelay="0.00" arrival="121.00" arrivalLane="junctionNorth_0" arrivalPos="492.80" arrivalSpeed="13.85" duration="90.00" routeLength="995.01" waitingTime="5.00" waitingCount="1" stopTime="0.00" timeLoss="17.64" rerouteNo="0" devices="tripinfo_southNorth.2 ssm_southNorth.2" vType="carCustom" speedFactor="1.07" vaporized=""/>
    <tripinfo id="westEastBottom0.3" depart="34.00" departLane="westJunction_0" departPos="5.10" departSpeed="13.08" departDelay="0.95" arrival="121.00" arrivalLane="junctionEast_0" arrivalPos="492.80" arrivalSpeed="13.77" duration="87.00" routeLength="994.90" waitingTime="1.00" waitingCount="1" stopTime="0.00" timeLoss="14.82" rerouteNo="0" devices="tripinfo_westEastBottom0.3 ssm_westEastBottom0.3" vType="carCustom" speedFactor="0.95" vaporized=""/>
    <tripinfo id="southEast.4" depart="40.00" departLane="southJunction_0" departPos="5.10" departSpeed="13.19" departDelay="0.54" arrival="124.00" arrivalLane="junctionEast_0" arrivalPos="492.80" arrivalSpeed="13.04" duration="84.00" routeLength="989.53" waitingTime="0.00" waitingCount="0" stopTime="0.00" timeLoss="11.76" rerouteNo="0" devices="tripinfo_southEast.4 ssm_southEast.4" vType="carCustom" speedFactor="0.97" vaporized=""/>
    <tripinfo id="southNorth.3" depart="34.00" departLane="southJunction_1" departPos="5.10" departSpeed="13.52" departDelay="0.64" arrival="125.00" arrivalLane="junctionNorth_0" arrivalPos="492.80" arrivalSpeed="13.77" duration="91.00" routeLength="995.01" waitingTime="3.00" waitingCount="1" stopTime="0.00" timeLoss="18.52" rerouteNo="0" devices="tripinfo_southNorth.3 ssm_southNorth.3" vType="carCustom" speedFactor="0.94" vaporized=""/>
    <tripinfo id="westEastTop.10" depart="37.00" departLane="westJunction_1" departPos="5.10" departSpeed="12.94" departDelay="0.11" arrival="128.00" arrivalLane="junctionEast_0" arrivalPos="492.80" arrivalSpeed="13.69" duration="91.00" routeLength="994.90" waitingTime="1.00" waitingCount="1" stopTime="0.00" timeLoss="18.84" rerouteNo="0" devices="tripinfo_westEastTop.10 ssm_westEastTop.10" vType="carCustom" speedFactor="1.26" vaporized=""/>
    <tripinfo id="southNorth.4" depart="40.00" departLane="southJunction_1" departPos="5.10" departSpeed="12.09" departDelay="0.36" arrival="131.00" arrivalLane="junctionNorth_0" arrivalPos="492.80" arrivalSpeed="13.69" duration="91.00" routeLength="995.01" waitingTime="0.00" waitingCount="0" stopTime="0.00" timeLoss="18.68" rerouteNo="0" devices="tripinfo_southNorth.4 ssm_southNorth.4" vType="carCustom" speedFactor="1.02" vaporized=""/>
    <tripinfo id="westEastTop.11" depart="39.00" departLane="westJunction_1" departPos="5.10" departSpeed="11.17" departDelay="1.29" arrival="132.00" arrivalLane="junctionEast_0" arrivalPos="492.80" arrivalSpeed="13.67" duration="93.00" routeLength="994.90" waitingTime="0.00" waitingCount="0" stopTime="0.00" timeLoss="20.46" rerouteNo="0" devices="tripinfo_westEastTop.11 ssm_westEastTop.11" vType="carCustom" speedFactor="1.05" vaporized=""/>
    <tripinfo id="southNorth.5" depart="44.00" departLane="southJunction_1" departPos="5.10" departSpeed="13.11" departDelay="0.51" arrival="135.00" arrivalLane="junctionNorth_0" arrivalPos="492.80" arrivalSpeed="13.69" duration="91.00" routeLength="995.01" waitingTime="0.00" waitingCount="0" stopTime="0.00" timeLoss="18.59" rerouteNo="0" devices="tripinfo_southNorth.5 ssm_southNorth.5" vType="carCustom" speedFactor="1.06" vaporized=""/>
    <tripinfo id="westEastBottom0.4" depart="52.00" departLane="westJunction_0" departPos="5.10" departSpeed="13.87" departDelay="0.16" arrival="135.00" arrivalLane="junctionEast_0" arrivalPos="492.80" arrivalSpeed="12.78" duration="83.00" routeLength="994.90" waitingTime="0.00" waitingCount="0" stopTime="0.00" timeLoss="11.07" rerouteNo="0" devices="tripinfo_westEastBottom0.4 ssm_westEastBottom0.4" vType="carCustom" speedFactor="0.95" vaporized=""/>
    <tripinfo id="westEastTop.12" depart="46.00" departLane="westJunction_1" departPos="5.10" departSpeed="11.10" departDelay="0.04" arrival="136.00" arrivalLane="junctionEast_1" arrivalPos="492.80" arrivalSpeed="13.86" duration="90.00" routeLength="994.90" waitingTime="0.00" waitingCount="0" stopTime="0.00" timeLoss="17.48" rerouteNo="0" devices="tripinfo_westEastTop.12 ssm_westEastTop.12" vType="carCustom" speedFactor="1.27" vaporized=""/>
    <tripinfo id="westEastBottom0.5" depart="58.00" departLane="westJunction_0" departPos="5.10" departSpeed="13.67" departDelay="0.14" arrival="139.00" arrivalLane="junctionEast_0" arrivalPos="492.80" arrivalSpeed="13.84" duration="81.00" routeLength="994.90" waitingTime="0.00" waitingCount="0" stopTime="0.00" timeLoss="8.56" rerouteNo="0" devices="tripinfo_westEastBottom0.5 ssm_westEastBottom0.5" vType="carCustom" speedFactor="0.92" vaporized=""/>
    <tripinfo id="westEastTop.14" depart="50.00" departLane="westJunction_1" departPos="5.10" departSpeed="10.07" departDelay="1.40" arrival="141.00" arrivalLane="junctionEast_0" arrivalPos="492.80" arrivalSpeed="12.88" duration="91.00" routeLength="994.90" waitingTime="0.00" waitingCount="0" stopTime="0.00" timeLoss="18.80" rerouteNo="0" devices="tripinfo_westEastTop.14 ssm_westEastTop.14" vType="carCustom" speedFactor="0.86" vaporized=""/>
    <tripinfo id="westEastTop.13" depart="48.00" departLane="westJunction_1" departPos="5.10" departSpeed="12.96" departDelay="1.50" arrival="143.00" arrivalLane="junctionEast_0" arrivalPos="492.80" arrivalSpeed="13.22" duration="95.00" routeLength="994.90" waitingTime="0.00" waitingCount="0" stopTime="0.00" timeLoss="22.63" rerouteNo="0" devices="tripinfo_westEastTop.13 ssm_westEastTop.13" vType="carCustom" speedFactor="1.06" vaporized=""/>
    <tripinfo id="westEastTop.15" depart="60.00" departLane="westJunction_1" departPos="5.10" departSpeed="11.01" departDelay="0.78" arrival="145.00" arrivalLane="junctionEast_1" arrivalPos="492.80" arrivalSpeed="12.79" duration="85.00" routeLength="994.90" waitingTime="0.00" waitingCount="0" stopTime="0.00" timeLoss="12.55" rerouteNo="0" devices="tripinfo_westEastTop.15 ssm_westEastTop.15" vType="carCustom" speedFactor="0.92" vaporized=""/>
    <tripinfo id="southEast.5" depart="57.00" departLane="southJunction_0" departPos="5.10" departSpeed="12.63" departDelay="0.78" arrival="146.00" arrivalLane="junctionEast_0" arrivalPos="492.80" arrivalSpeed="13.89" duration="89.00" routeLength="989.53" waitingTime="3.00" waitingCount="1" stopTime="0.00" timeLoss="16.81" rerouteNo="0" devices="tripinfo_southEast.5 ssm_southEast.5" vType="carCustom" speedFactor="1.05" vaporized=""/>
    <tripinfo id="westEastTop.16" depart="64.00" departLane="westJunction_1" departPos="5.10" departSpeed="12.96" departDelay="0.92" arrival="149.00" arrivalLane="junctionEast_1" arrivalPos="492.80" arrivalSpeed="13.87" duration="85.00" routeLength="994.90" waitingTime="0.00" waitingCount="0" stopTime="0.00" timeLoss="12.43" rerouteNo="0" devices="tripinfo_westEastTop.16 ssm_westEastTop.16" vType="carCustom" speedFactor="1.08" vaporized=""/>
    <tripinfo id="southEast.6" depart="59.00" departLane="southJunction_0" departPos="5.10" departSpeed="13.50" departDelay="1.01" arrival="150.00" arrivalLane="junctionEast_0" arrivalPos="492.80" arrivalSpeed="13.23" duration="91.00" routeLength="989.53" waitingTime="0.00" waitingCount="0" stopTime="0.00" timeLoss="18.21" rerouteNo="0" devices="tripinfo_southEast.6 ssm_southEast.6" vType="carCustom" speedFactor="1.04" vaporized=""/>
    <tripinfo id="westEastTop.17" depart="66.00" departLane="westJunction_1" departPos="5.10" departSpeed="13.50" departDelay="2.87" arrival="152.00" arrivalLane="junctionEast_1" arrivalPos="492.80" arrivalSpeed="13.82" duration="86.00" routeLength="994.90" waitingTime="0.00" waitingCount="0" stopTime="0.00" timeLoss="14.14" rerouteNo="0" devices="tripinfo_westEastTop.17 ssm_westEastTop.17" vType="carCustom" speedFactor="0.93" vaporized=""/>
    <tripinfo id="westEastBottom0.6" depart="73.00" departLane="westJunction_0" departPos="5.10" departSpeed="13.83" departDelay="0.26" arrival="153.00" arrivalLane="junctionEast_0" arrivalPos="492.80" arrivalSpeed="13.72" duration="80.00" routeLength="994.90" waitingTime="0.00" waitingCount="0" stopTime="0.00" timeLoss="8.14" rerouteNo="0" devices="tripinfo_westEastBottom0.6 ssm_westEastBottom0.6" vType="carCustom" speedFactor="1.03" vaporized=""/>
    <tripinfo id="southNorth.6" depart="47.00" departLane="southJunction_1" departPos="5.10" departSpeed="13.86" departDelay="0.71" arrival="156.00" arrivalLane="junctionNorth_0" arrivalPos="492.80" arrivalSpeed="13.82" duration="109.00" routeLength="995.01" waitingTime="17.00" waitingCount="1" stopTime="0.00" timeLoss="37.00" rerouteNo="0" devices="tripinfo_southNorth.6 ssm_southNorth.6" vType="carCustom" speedFactor="1.21" vaporized=""/>
    <tripinfo id="southEast.7" depart="63.00" departLane="southJunction_0" departPos="5.10" departSpeed="11.82" departDelay="0.97" arrival="157.00" arrivalLane="junctionEast_0" arrivalPos="492.80" arrivalSpeed="13.57" duration="94.00" routeLength="989.53" waitingTime="2.00" waitingCount="1" stopTime="0.00" timeLoss="21.54" rerouteNo="0" devices="tripinfo_southEast.7 ssm_southEast.7" vType="carCustom" speedFactor="0.97" vaporized=""/>
    <tripinfo id="southEast.8" depart="73.00" departLane="southJunction_0" departPos="5.10" departSpeed="12.68" departDelay="0.65" arrival="160.00" arrivalLane="junctionEast_0" arrivalPos="492.80" arrivalSpeed="13.82" duration="87.00" routeLength="989.53" waitingTime="0.00" waitingCount="0" stopTime="0.00" timeLoss="14.64" rerouteNo="0" devices="tripinfo_southEast.8 ssm_southEast.8" vType="carCustom" speedFactor="0.99" vaporized=""/>
    <tripinfo id="westEastTop.18" depart="77.00" departLane="westJunction_1" departPos="5.10" departSpeed="11.75" departDelay="0.29" arrival="164.00" arrivalLane="junctionEast_0" arrivalPos="492.80" arrivalSpeed="13.58" duration="87.00" routeLength="994.90" waitingTime="3.00" waitingCount="1" stopTime="0.00" timeLoss="14.79" rerouteNo="0" devices="tripinfo_westEastTop.18 ssm_westEastTop.18" vType="carCustom" speedFactor="0.95" vaporized=""/>
    <tripinfo id="westEastBottom0.7" depart="87.00" departLane="westJunction_0" departPos="5.10" departSpeed="12.83" departDelay="0.21" arrival="164.00" arrivalLane="junctionEast_1" arrivalPos="492.80" arrivalSpeed="13.46" duration="77.00" routeLength="994.90" waitingTime="0.00" waitingCount="0" stopTime="0.00" timeLoss="4.92" rerouteNo="0" devices="tripinfo_westEastBottom0.7 ssm_westEastBottom0.7" vType="carCustom" speedFactor="1.07" vaporized=""/>
    <tripinfo id="southNorth.7" depart="70.00" departLane="southJunction_1" departPos="5.10" departSpeed="13.65" departDelay="0.50" arrival="166.00" arrivalLane="junctionNorth_0" arrivalPos="492.80" arrivalSpeed="13.79" duration="96.00" routeLength="995.01" waitingTime="9.00" waitingCount="2" stopTime="0.00" timeLoss="23.59" rerouteNo="0" devices="tripinfo_southNorth.7 ssm_southNorth.7" vType="carCustom" speedFactor="1.06" vaporized=""/>
    <tripinfo id="southEast.9" depart="81.00" departLane="southJunction_0" departPos="5.10" departSpeed="12.77" departDelay="0.67" arrival="168.00" arrivalLane="junctionEast_0" arrivalPos="492.80" arrivalSpeed="13.03" duration="87.00" routeLength="989.53" waitingTime="5.00" waitingCount="1" stopTime="0.00" timeLoss="14.31" rerouteNo="0" devices="tripinfo_southEast.9 ssm_southEast.9" vType="carCustom" speedFactor="1.07" vaporized=""/>
    <tripinfo id="southNorth.8" depart="76.00" departLane="southJunction_1" departPos="5.10" departSpeed="13.79" departDelay="0.51" arrival="169.00" arrivalLane="junctionNorth_0" arrivalPos="492.80" arrivalSpeed="13.75" duration="93.00" routeLength="995.01" waitingTime="3.00" waitingCount="1" stopTime="0.00" timeLoss="21.32" rerouteNo="0" devices="tripinfo_southNorth.8 ssm_southNorth.8" vType="carCustom" speedFactor="0.91" vaporized=""/>
    <tripinfo id="westEastTop.19" depart="80.00" departLane="westJunction_1" departPos="5.10" departSpeed="13.01" departDelay="0.52" arrival="171.00" arrivalLane="junctionEast_1" arrivalPos="492.80" arrivalSpeed="13.69" duration="91.00" routeLength="994.90" waitingTime="5.00" waitingCount="1" stopTime="0.00" timeLoss="18.42" rerouteNo="0" devices="tripinfo_westEastTop.19 ssm_westEastTop.19" vType="carCustom" speedFactor="0.99" vaporized=""/>
    <tripinfo id="westEastBottom0.8" depart="94.00" departLane="westJunction_0" departPos="5.10" departSpeed="13.88" departDelay="0.70" arrival="171.00" arrivalLane="junctionEast_0" arrivalPos="492.80" arrivalSpeed="12.85" duration="77.00" routeLength="994.90" waitingTime="0.00" waitingCount="0" stopTime="0.00" timeLoss="5.19" rerouteNo="0" devices="tripinfo_westEastBottom0.8 ssm_westEastBottom0.8" vType="carCustom" speedFactor="0.90" vaporized=""/>
    <tripinfo id="westEastTop.20" depart="82.00" departLane="westJunction_1" departPos="5.10" departSpeed="11.67" departDelay="2.24" arrival="175.00" arrivalLane="junctionEast_0" arrivalPos="492.80" arrivalSpeed="13.56" duration="93.00" routeLength="994.90" waitingTime="3.00" waitingCount="1" stopTime="0.00" timeLoss="20.77" rerouteNo="0" devices="tripinfo_westEastTop.20 ssm_westEastTop.20" vType="carCustom" speedFactor="0.95" vaporized=""/>
    <tripinfo id="southNorth.9" depart="78.00" departLane="southJunction_1" departPos="5.10" departSpeed="13.48" departDelay="0.62" arrival="176.00" arrivalLane="junctionNorth_0" arrivalPos="492.80" arrivalSpeed="13.40" duration="98.00" routeLength="995.01" waitingTime="4.00" waitingCount="2" stopTime="0.00" timeLoss="25.62" rerouteNo="0" devices="tripinfo_southNorth.9 ssm_southNorth.9" vType="carCustom" speedFactor="1.13" vaporized=""/>
    <tripinfo id="southEast.10" depart="93.00" departLane="southJunction_0" departPos="5.10" departSpeed="12.66" departDelay="0.11" arrival="178.00" arrivalLane="junctionEast_0" arrivalPos="492.80" arrivalSpeed="13.57" duration="85.00" routeLength="989.53" waitingTime="2.00" waitingCount="1" stopTime="0.00" timeLoss="13.21" rerouteNo="0" devices="tripinfo_southEast.10 ssm_southEast.10" vType="carCustom" speedFactor="0.98" vaporized=""/>
    <tripinfo id="westEastBottom0.13" depart="140.00" departLane="westJunction_0" departPos="5.10" departSpeed="12.95" departDelay="0.77" arrival="178.00" arrivalLane="junctionEast_0" arrivalPos="492.80" arrivalSpeed="12.86" duration="38.00" routeLength="994.90" waitingTime="0.00" waitingCount="0" stopTime="0.00" timeLoss="1.79" rerouteNo="0" devices="tripinfo_westEastBottom0.13 ssm_westEastBottom0.13" vType="carCustom" speedFactor="1.19" vaporized="teleport"/>
    <tripinfo id="southNorth.10" depart="85.00" departLane="southJunction_1" departPos="5.10" departSpeed="12.07" departDelay="0.27" arrival="179.00" arrivalLane="junctionNorth_0" arrivalPos="492.80" arrivalSpeed="13.14" duration="94.00" routeLength="995.01" waitingTime="1.00" waitingCount="1" stopTime="0.00" timeLoss="22.31" rerouteNo="0" devices="tripinfo_southNorth.10 ssm_southNorth.10" vType="carCustom" speedFactor="1.05" vaporized=""/>
    <tripinfo id="westEastTop.21" depart="84.00" departLane="westJunction_1" departPos="5.10" departSpeed="9.31" departDelay="1.90" arrival="181.00" arrivalLane="junctionEast_0" arrivalPos="492.80" arrivalSpeed="13.19" duration="97.00" routeLength="994.90" waitingTime="2.00" waitingCount="1" stopTime="0.00" timeLoss="24.71" rerouteNo="0" devices="tripinfo_westEastTop.21 ssm_westEastTop.21" vType="carCustom" speedFactor="1.10" vaporized=""/>
    <tripinfo id="southEast.11" depart="95.00" departLane="southJunction_0" departPos="5.10" departSpeed="12.94" departDelay="0.58" arrival="183.00" arrivalLane="junctionEast_1" arrivalPos="492.80" arrivalSpeed="13.24" duration="88.00" routeLength="989.53" waitingTime="0.00" waitingCount="0" stopTime="0.00" timeLoss="15.42" rerouteNo="0" devices="tripinfo_southEast.11 ssm_southEast.11" vType="carCustom" speedFactor="0.98" vaporized=""/>
    <tripinfo id="southNorth.11" depart="87.00" departLane="southJunction_1" departPos="5.10" departSpeed="13.16" departDelay="1.45" arrival="186.00" arrivalLane="junctionNorth_0" arrivalPos="492.80" arrivalSpeed="13.47" duration="99.00" routeLength="995.01" waitingTime="3.00" waitingCount="1" stopTime="0.00" timeLoss="26.91" rerouteNo="0" devices="tripinfo_southNorth.11 ssm_southNorth.11" vType="carCustom" speedFactor="0.96" vaporized=""/>
    <tripinfo id="westEastBottom0.9" depart="103.00" departLane="westJunction_0" departPos="5.10" departSpeed="12.75" departDelay="0.59" arrival="186.00" arrivalLane="junctionEast_0" arrivalPos="492.80" arrivalSpeed="13.23" duration="83.00" routeLength="994.90" waitingTime="0.00" waitingCount="0" stopTime="0.00" timeLoss="10.51" rerouteNo="0" devices="tripinfo_westEastBottom0.9 ssm_westEastBottom0.9" vType="carCustom" speedFactor="1.14" vaporized=""/>
    <tripinfo id="westEastBottom0.14" depart="148.00" departLane="westJunction_0" departPos="5.10" departSpeed="13.11" departDelay="0.90" arrival="187.00" arrivalLane="junctionEast_0" arrivalPos="492.80" arrivalSpeed="7.85" duration="39.00" routeLength="994.90" waitingTime="0.00" waitingCount="0" stopTime="0.00" timeLoss="2.69" rerouteNo="0" devices="tripinfo_westEastBottom0.14 ssm_westEastBottom0.14" vType="carCustom" speedFactor="0.89" vaporized="teleport"/>
    <tripinfo id="westEastTop.22" depart="87.00" departLane="westJunction_1" departPos="5.10" departSpeed="8.43" departDelay="4.31" arrival="191.00" arrivalLane="junctionEast_1" arrivalPos="492.80" arrivalSpeed="12.86" duration="104.00" routeLength="994.90" waitingTime="5.00" waitingCount="1" stopTime="0.00" timeLoss="31.86" rerouteNo="0" devices="tripinfo_westEastTop.22 ssm_westEastTop.22" vType="carCustom" speedFactor="0.98" vaporized=""/>
    <tripinfo id="westEastBottom0.10" depart="105.00" departLane="westJunction_0" departPos="5.10" departSpeed="13.04" departDelay="2.20" arrival="191.00" arrivalLane="junctionEast_0" arrivalPos="492.80" arrivalSpeed="13.06" duration="86.00" routeLength="994.90" waitingTime="3.00" waitingCount="1" stopTime="0.00" timeLoss="13.71" rerouteNo="0" devices="tripinfo_westEastBottom0.10 ssm_westEastBottom0.10" vType="carCustom" speedFactor="0.91" vaporized=""/>
    <tripinfo id="westEastTop.23" depart="90.00" departLane="westJunction_1" departPos="5.10" departSpeed="7.81" departDelay="4.94" arrival="195.00" arrivalLane="junctionEast_1" arrivalPos="492.80" arrivalSpeed="13.55" duration="105.00" routeLength="994.90" waitingTime="2.00" waitingCount="1" stopTime="0.00" timeLoss="32.59" rerouteNo="0" devices="tripinfo_westEastTop.23 ssm_westEastTop.23" vType="carCustom" speedFactor="0.95" vaporized=""/>
    <tripinfo id="westEastBottom0.11" depart="112.00" departLane="westJunction_0" departPos="5.10" departSpeed="11.02" departDelay="0.44" arrival="195.00" arrivalLane="junctionEast_0" arrivalPos="492.80" arrivalSpeed="12.69" duration="83.00" routeLength="994.90" waitingTime="0.00" waitingCount="0" stopTime="0.00" timeLoss="10.62" rerouteNo="0" devices="tripinfo_westEastBottom0.11 ssm_westEastBottom0.11" vType="carCustom" speedFactor="0.95" vaporized=""/>
    <tripinfo id="southNorth.12" depart="89.00" departLane="southJunction_1" departPos="5.10" departSpeed="10.93" departDelay="2.55" arrival="196.00" arrivalLane="junctionNorth_0" arrivalPos="492.80" arrivalSpeed="12.83" duration="107.00" routeLength="995.01" waitingTime="6.00" waitingCount="2" stopTime="0.00" timeLoss="34.83" rerouteNo="0" devices="tripinfo_southNorth.12 ssm_southNorth.12" vType="carCustom" speedFactor="1.14" vaporized=""/>