<?xml version="1.0" encoding="UTF-8"?>

<!-- generated on 2025-04-29 09:17:31 by Eclipse SUMO sumo Version 1.20.0
<configuration xmlns:xsi="http://www.w3.org/2001/XMLSchema-instance" xsi:noNamespaceSchemaLocation="http://sumo.dlr.de/xsd/sumoConfiguration.xsd">

    <input>
        <net-file value="nets/2lane_unprotected_right/2lane_unprotected_right.net.xml"/>
        <route-files value="nets/2lane_unprotected_right/2lane_unprotected_right.rou.xml"/>
    </input>

    <output>
        <tripinfo-output value="traces/transs50f1_s50_f0.5_random/0202_tripinfo.xml"/>
        <collision-output value="traces/transs50f1_s50_f0.5_random/0202_collisions.xml"/>
        <statistic-output value="traces/transs50f1_s50_f0.5_random/0202_statistics.xml"/>
    </output>

    <processing>
        <collision.action value="teleport"/>
        <collision.check-junctions value="true"/>
        <time-to-teleport value="-1"/>
        <waiting-time-memory value="1000"/>
        <max-depart-delay value="-1"/>
        <default.speeddev value="0.1"/>
    </processing>

    <report>
        <no-warnings value="true"/>
    </report>

    <ssm_device>
        <device.ssm.probability value="1.0"/>
        <device.ssm.measures value="BR"/>
        <device.ssm.file value="/Users/finn/Code/CausalKnowledgeTransfer-4-SafeRL/traces/transs50f1_s50_f0.5_random/0202_ssm.xml"/>
    </ssm_device>

    <traci_server>
        <remote-port value="64909"/>
    </traci_server>

    <random_number>
        <random value="true"/>
    </random_number>

</configuration>
-->

<tripinfos xmlns:xsi="http://www.w3.org/2001/XMLSchema-instance" xsi:noNamespaceSchemaLocation="http://sumo.dlr.de/xsd/tripinfo_file.xsd">
    <tripinfo id="southEast.0" depart="9.00" departLane="southJunction_0" departPos="5.10" departSpeed="8.33" departDelay="0.04" arrival="77.00" arrivalLane="junctionEast_0" arrivalPos="492.80" arrivalSpeed="7.20" duration="68.00" routeLength="989.53" waitingTime="0.00" waitingCount="0" stopTime="0.00" timeLoss="7.69" rerouteNo="0" devices="tripinfo_southEast.0 ssm_southEast.0" vType="carCustom" speedFactor="1.13" vaporized="teleport"/>
    <tripinfo id="westEastBottom0.0" depart="6.00" departLane="westJunction_0" departPos="5.10" departSpeed="8.33" departDelay="0.10" arrival="135.00" arrivalLane="junctionEast_0" arrivalPos="492.80" arrivalSpeed="8.19" duration="129.00" routeLength="994.90" waitingTime="0.00" waitingCount="0" stopTime="0.00" timeLoss="9.40" rerouteNo="0" devices="tripinfo_westEastBottom0.0 ssm_westEastBottom0.0" vType="carCustom" speedFactor="0.98" vaporized=""/>
    <tripinfo id="westEastTop.0" depart="7.00" departLane="westJunction_1" departPos="5.10" departSpeed="8.33" departDelay="0.98" arrival="137.00" arrivalLane="junctionEast_1" arrivalPos="492.80" arrivalSpeed="7.64" duration="130.00" routeLength="994.90" waitingTime="0.00" waitingCount="0" stopTime="0.00" timeLoss="9.75" rerouteNo="0" devices="tripinfo_westEastTop.0 ssm_westEastTop.0" vType="carCustom" speedFactor="0.82" vaporized=""/>
    <tripinfo id="westEastTop.1" depart="9.00" departLane="westJunction_1" departPos="5.10" departSpeed="8.21" departDelay="2.06" arrival="139.00" arrivalLane="junctionEast_0" arrivalPos="492.80" arrivalSpeed="7.96" duration="130.00" routeLength="994.90" waitingTime="0.00" waitingCount="0" stopTime="0.00" timeLoss="10.09" rerouteNo="0" devices="tripinfo_westEastTop.1 ssm_westEastTop.1" vType="carCustom" speedFactor="0.86" vaporized=""/>
    <tripinfo id="westEastBottom0.1" depart="11.00" departLane="westJunction_0" departPos="5.10" departSpeed="7.83" departDelay="0.36" arrival="141.00" arrivalLane="junctionEast_0" arrivalPos="492.80" arrivalSpeed="8.01" duration="130.00" routeLength="994.90" waitingTime="0.00" waitingCount="0" stopTime="0.00" timeLoss="10.21" rerouteNo="0" devices="tripinfo_westEastBottom0.1 ssm_westEastBottom0.1" vType="carCustom" speedFactor="0.97" vaporized=""/>
    <tripinfo id="westEastTop.2" depart="11.00" departLane="westJunction_1" departPos="5.10" departSpeed="7.52" departDelay="0.17" arrival="142.00" arrivalLane="junctionEast_1" arrivalPos="492.80" arrivalSpeed="7.57" duration="131.00" routeLength="994.90" waitingTime="0.00" waitingCount="0" stopTime="0.00" timeLoss="10.91" rerouteNo="0" devices="tripinfo_westEastTop.2 ssm_westEastTop.2" vType="carCustom" speedFactor="0.89" vaporized=""/>
    <tripinfo id="westEastTop.3" depart="17.00" departLane="westJunction_1" departPos="5.10" departSpeed="7.74" departDelay="0.78" arrival="147.00" arrivalLane="junctionEast_0" arrivalPos="492.80" arrivalSpeed="8.03" duration="130.00" routeLength="994.90" waitingTime="0.00" waitingCount="0" stopTime="0.00" timeLoss="9.90" rerouteNo="0" devices="tripinfo_westEastTop.3 ssm_westEastTop.3" vType="carCustom" speedFactor="1.02" vaporized=""/>
    <tripinfo id="westEastTop.4" depart="19.00" departLane="westJunction_1" departPos="5.10" departSpeed="7.20" departDelay="2.07" arrival="150.00" arrivalLane="junctionEast_0" arrivalPos="492.80" arrivalSpeed="8.29" duration="131.00" routeLength="994.90" waitingTime="0.00" waitingCount="0" stopTime="0.00" timeLoss="10.85" rerouteNo="0" devices="tripinfo_westEastTop.4 ssm_westEastTop.4" vType="carCustom" speedFactor="1.15" vaporized=""/>
    <tripinfo id="southEast.1" depart="19.00" departLane="southJunction_0" departPos="5.10" departSpeed="7.89" departDelay="0.41" arrival="152.00" arrivalLane="junctionEast_0" arrivalPos="492.80" arrivalSpeed="7.25" duration="133.00" routeLength="989.53" waitingTime="0.00" waitingCount="0" stopTime="0.00" timeLoss="13.80" rerouteNo="0" devices="tripinfo_southEast.1 ssm_southEast.1" vType="carCustom" speedFactor="1.04" vaporized=""/>
    <tripinfo id="westEastTop.5" depart="22.00" departLane="westJunction_1" departPos="5.10" departSpeed="7.94" departDelay="2.91" arrival="152.00" arrivalLane="junctionEast_1" arrivalPos="492.80" arrivalSpeed="7.75" duration="130.00" routeLength="994.90" waitingTime="0.00" waitingCount="0" stopTime="0.00" timeLoss="10.42" rerouteNo="0" devices="tripinfo_westEastTop.5 ssm_westEastTop.5" vType="carCustom" speedFactor="1.13" vaporized=""/>
    <tripinfo id="southEast.2" depart="22.00" departLane="southJunction_0" departPos="5.10" departSpeed="7.80" departDelay="2.64" arrival="154.00" arrivalLane="junctionEast_0" arrivalPos="492.80" arrivalSpeed="8.21" duration="132.00" routeLength="989.53" waitingTime="0.00" waitingCount="0" stopTime="0.00" timeLoss="12.69" rerouteNo="0" devices="tripinfo_southEast.2 ssm_southEast.2" vType="carCustom" speedFactor="0.96" vaporized=""/>
    <tripinfo id="westEastTop.6" depart="24.00" departLane="westJunction_1" departPos="5.10" departSpeed="7.45" departDelay="0.41" arrival="155.00" arrivalLane="junctionEast_1" arrivalPos="492.80" arrivalSpeed="7.51" duration="131.00" routeLength="994.90" waitingTime="0.00" waitingCount="0" stopTime="0.00" timeLoss="11.01" rerouteNo="0" devices="tripinfo_westEastTop.6 ssm_westEastTop.6" vType="carCustom" speedFactor="1.00" vaporized=""/>
    <tripinfo id="southNorth.0" depart="24.00" departLane="southJunction_1" departPos="5.10" departSpeed="8.33" departDelay="0.57" arrival="156.00" arrivalLane="junctionNorth_0" arrivalPos="492.80" arrivalSpeed="7.23" duration="132.00" routeLength="995.01" waitingTime="1.00" waitingCount="1" stopTime="0.00" timeLoss="12.46" rerouteNo="0" devices="tripinfo_southNorth.0 ssm_southNorth.0" vType="carCustom" speedFactor="0.94" vaporized=""/>
    <tripinfo id="southEast.3" depart="25.00" departLane="southJunction_0" departPos="5.10" departSpeed="7.59" departDelay="2.73" arrival="157.00" arrivalLane="junctionEast_0" arrivalPos="492.80" arrivalSpeed="7.09" duration="132.00" routeLength="989.53" waitingTime="0.00" waitingCount="0" stopTime="0.00" timeLoss="12.35" rerouteNo="0" devices="tripinfo_southEast.3 ssm_southEast.3" vType="carCustom" speedFactor="1.08" vaporized=""/>
    <tripinfo id="southNorth.1" depart="26.00" departLane="southJunction_1" departPos="5.10" departSpeed="8.21" departDelay="0.05" arrival="159.00" arrivalLane="junctionNorth_0" arrivalPos="492.80" arrivalSpeed="7.95" duration="133.00" routeLength="995.01" waitingTime="0.00" waitingCount="0" stopTime="0.00" timeLoss="13.22" rerouteNo="0" devices="tripinfo_southNorth.1 ssm_southNorth.1" vType="carCustom" speedFactor="0.91" vaporized=""/>
    <tripinfo id="westEastBottom0.3" depart="32.00" departLane="westJunction_0" departPos="5.10" departSpeed="8.08" departDelay="0.59" arrival="161.00" arrivalLane="junctionEast_1" arrivalPos="492.80" arrivalSpeed="7.81" duration="129.00" routeLength="994.90" waitingTime="0.00" waitingCount="0" stopTime="0.00" timeLoss="9.35" rerouteNo="0" devices="tripinfo_westEastBottom0.3 ssm_westEastBottom0.3" vType="carCustom" speedFactor="0.96" vaporized=""/>
    <tripinfo id="westEastBottom0.2" depart="27.00" departLane="westJunction_0" departPos="5.10" departSpeed="8.04" departDelay="0.22" arrival="162.00" arrivalLane="junctionEast_0" arrivalPos="492.80" arrivalSpeed="7.74" duration="135.00" routeLength="994.90" waitingTime="1.00" waitingCount="1" stopTime="0.00" timeLoss="15.06" rerouteNo="0" devices="tripinfo_westEastBottom0.2 ssm_westEastBottom0.2" vType="carCustom" speedFactor="0.89" vaporized=""/>
    <tripinfo id="westEastBottom0.4" depart="34.00" departLane="westJunction_0" departPos="5.10" departSpeed="7.76" departDelay="0.54" arrival="164.00" arrivalLane="junctionEast_0" arrivalPos="492.80" arrivalSpeed="7.05" duration="130.00" routeLength="994.90" waitingTime="0.00" waitingCount="0" stopTime="0.00" timeLoss="10.45" rerouteNo="0" devices="tripinfo_westEastBottom0.4 ssm_westEastBottom0.4" vType="carCustom" speedFactor="0.94" vaporized=""/>
    <tripinfo id="southEast.4" depart="27.00" departLane="southJunction_0" departPos="5.10" departSpeed="7.65" departDelay="3.46" arrival="166.00" arrivalLane="junctionEast_0" arrivalPos="492.80" arrivalSpeed="8.02" duration="139.00" routeLength="989.53" waitingTime="5.00" waitingCount="1" stopTime="0.00" timeLoss="19.70" rerouteNo="0" devices="tripinfo_southEast.4 ssm_southEast.4" vType="carCustom" speedFactor="0.84" vaporized=""/>
    <tripinfo id="southEast.5" depart="39.00" departLane="southJunction_0" departPos="5.10" departSpeed="8.15" departDelay="0.06" arrival="170.00" arrivalLane="junctionEast_0" arrivalPos="492.80" arrivalSpeed="7.57" duration="131.00" routeLength="989.53" waitingTime="0.00" waitingCount="0" stopTime="0.00" timeLoss="10.89" rerouteNo="0" devices="tripinfo_southEast.5 ssm_southEast.5" vType="carCustom" speedFactor="0.96" vaporized=""/>
    <tripinfo id="westEastBottom0.5" depart="42.00" departLane="westJunction_0" departPos="5.10" departSpeed="7.38" departDelay="0.63" arrival="172.00" arrivalLane="junctionEast_0" arrivalPos="492.80" arrivalSpeed="8.14" duration="130.00" routeLength="994.90" waitingTime="0.00" waitingCount="0" stopTime="0.00" timeLoss="9.96" rerouteNo="0" devices="tripinfo_westEastBottom0.5 ssm_westEastBottom0.5" vType="carCustom" speedFactor="0.99" vaporized=""/>
    <tripinfo id="southEast.6" depart="45.00" departLane="southJunction_0" departPos="5.10" departSpeed="7.87" departDelay="0.38" arrival="178.00" arrivalLane="junctionEast_0" arrivalPos="492.80" arrivalSpeed="8.05" duration="133.00" routeLength="989.53" waitingTime="1.00" waitingCount="1" stopTime="0.00" timeLoss="13.95" rerouteNo="0" devices="tripinfo_southEast.6 ssm_southEast.6" vType="carCustom" speedFactor="1.06" vaporized=""/>
    <tripinfo id="westEastBottom0.6" depart="53.00" departLane="westJunction_0" departPos="5.10" departSpeed="8.00" departDelay="0.75" arrival="182.00" arrivalLane="junctionEast_0" arrivalPos="492.80" arrivalSpeed="7.62" duration="129.00" routeLength="994.90" waitingTime="0.00" waitingCount="0" stopTime="0.00" timeLoss="9.57" rerouteNo="0" devices="tripinfo_westEastBottom0.6 ssm_westEastBottom0.6" vType="carCustom" speedFactor="0.94" vaporized=""/>
    <tripinfo id="southEast.7" depart="59.00" departLane="southJunction_0" departPos="5.10" departSpeed="7.95" departDelay="0.61" arrival="190.00" arrivalLane="junctionEast_0" arrivalPos="492.80" arrivalSpeed="8.22" duration="131.00" routeLength="989.53" waitingTime="0.00" waitingCount="0" stopTime="0.00" timeLoss="11.46" rerouteNo="0" devices="tripinfo_southEast.7 ssm_southEast.7" vType="carCustom" speedFactor="1.00" vaporized=""/>
    <tripinfo id="southNorth.2" depart="59.00" departLane="southJunction_1" departPos="5.10" departSpeed="7.82" departDelay="0.39" arrival="190.00" arrivalLane="junctionNorth_0" arrivalPos="492.80" arrivalSpeed="7.67" duration="131.00" routeLength="995.01" waitingTime="0.00" waitingCount="0" stopTime="0.00" timeLoss="10.72" rerouteNo="0" devices="tripinfo_southNorth.2 ssm_southNorth.2" vType="carCustom" speedFactor="1.11" vaporized=""/>
    <tripinfo id="southNorth.3" depart="61.00" departLane="southJunction_1" departPos="5.10" departSpeed="8.00" departDelay="0.17" arrival="193.00" arrivalLane="junctionNorth_0" arrivalPos="492.80" arrivalSpeed="8.10" duration="132.00" routeLength="995.01" waitingTime="0.00" waitingCount="0" stopTime="0.00" timeLoss="11.95" rerouteNo="0" devices="tripinfo_southNorth.3 ssm_southNorth.3" vType="carCustom" speedFactor="1.19" vaporized=""/>
    <tripinfo id="westEastBottom0.7" depart="61.00" departLane="westJunction_0" departPos="5.10" departSpeed="7.51" departDelay="0.43" arrival="196.00" arrivalLane="junctionEast_0" arrivalPos="492.80" arrivalSpeed="8.14" duration="135.00" routeLength="994.90" waitingTime="1.00" waitingCount="1" stopTime="0.00" timeLoss="15.42" rerouteNo="0" devices="tripinfo_westEastBottom0.7 ssm_westEastBottom0.7" vType="carCustom" speedFactor="0.97" vaporized=""/>
    <tripinfo id="westEastTop.7" depart="62.00" departLane="westJunction_1" departPos="5.10" departSpeed="6.90" departDelay="0.57" arrival="196.00" arrivalLane="junctionEast_1" arrivalPos="492.80" arrivalSpeed="7.25" duration="134.00" routeLength="994.90" waitingTime="2.00" waitingCount="1" stopTime="0.00" timeLoss="14.56" rerouteNo="0" devices="tripinfo_westEastTop.7 ssm_westEastTop.7" vType="carCustom" speedFactor="1.06" vaporized=""/>
    <tripinfo id="westEastBottom0.8" depart="64.00" departLane="westJunction_0" departPos="5.10" departSpeed="7.51" departDelay="2.02" arrival="199.00" arrivalLane="junctionEast_0" arrivalPos="492.80" arrivalSpeed="7.83" duration="135.00" routeLength="994.90" waitingTime="0.00" waitingCount="0" stopTime="0.00" timeLoss="15.30" rerouteNo="0" devices="tripinfo_westEastBottom0.8 ssm_westEastBottom0.8" vType="carCustom" speedFactor="0.99" vaporized=""/>
    <tripinfo id="westEastTop.8" depart="65.00" departLane="westJunction_1" departPos="5.10" departSpeed="7.38" departDelay="0.32" arrival="199.00" arrivalLane="junctionEast_1" arrivalPos="492.80" arrivalSpeed="7.70" duration="134.00" routeLength="994.90" waitingTime="1.00" waitingCount="1" stopTime="0.00" timeLoss="13.98" rerouteNo="0" devices="tripinfo_westEastTop.8 ssm_westEastTop.8" vType="carCustom" speedFactor="1.01" vaporized=""/>
    <tripinfo id="westEastTop.9" depart="68.00" departLane="westJunction_1" departPos="5.10" departSpeed="8.30" departDelay="1.78" arrival="201.00" arrivalLane="junctionEast_1" arrivalPos="492.80" arrivalSpeed="8.20" duration="133.00" routeLength="994.90" waitingTime="0.00" waitingCount="0" stopTime="0.00" timeLoss="13.57" rerouteNo="0" devices="tripinfo_westEastTop.9 ssm_westEastTop.9" vType="carCustom" speedFactor="0.91" vaporized=""/>
    <tripinfo id="westEastBottom0.9" depart="66.00" departLane="westJunction_0" departPos="5.10" departSpeed="7.25" departDelay="3.48" arrival="202.00" arrivalLane="junctionEast_0" arrivalPos="492.80" arrivalSpeed="7.83" duration="136.00" routeLength="994.90" waitingTime="0.00" waitingCount="0" stopTime="0.00" timeLoss="15.83" rerouteNo="0" devices="tripinfo_westEastBottom0.9 ssm_westEastBottom0.9" vType="carCustom" speedFactor="0.84" vaporized=""/>
    <tripinfo id="southEast.8" depart="70.00" departLane="southJunction_0" departPos="5.10" departSpeed="7.60" departDelay="0.23" arrival="204.00" arrivalLane="junctionEast_0" arrivalPos="492.80" arrivalSpeed="7.30" duration="134.00" routeLength="989.53" waitingTime="1.00" waitingCount="1" stopTime="0.00" timeLoss="14.47" rerouteNo="0" devices="tripinfo_southEast.8 ssm_southEast.8" vType="carCustom" speedFactor="0.96" vaporized=""/>
    <tripinfo id="westEastTop.10" depart="74.00" departLane="westJunction_1" departPos="5.10" departSpeed="7.61" departDelay="0.32" arrival="204.00" arrivalLane="junctionEast_1" arrivalPos="492.80" arrivalSpeed="7.94" duration="130.00" routeLength="994.90" waitingTime="0.00" waitingCount="0" stopTime="0.00" timeLoss="10.32" rerouteNo="0" devices="tripinfo_westEastTop.10 ssm_westEastTop.10" vType="carCustom" speedFactor="1.07" vaporized=""/>
    <tripinfo id="westEastBottom0.10" depart="76.00" departLane="westJunction_0" departPos="5.10" departSpeed="8.20" departDelay="0.89" arrival="206.00" arrivalLane="junctionEast_0" arrivalPos="492.80" arrivalSpeed="8.12" duration="130.00" routeLength="994.90" waitingTime="0.00" waitingCount="0" stopTime="0.00" timeLoss="10.47" rerouteNo="0" devices="tripinfo_westEastBottom0.10 ssm_westEastBottom0.10" vType="carCustom" speedFactor="0.94" vaporized=""/>
    <tripinfo id="westEastTop.11" depart="81.00" departLane="westJunction_1" departPos="5.10" departSpeed="7.52" departDelay="0.09" arrival="211.00" arrivalLane="junctionEast_0" arrivalPos="492.80" arrivalSpeed="8.02" duration="130.00" routeLength="994.90" waitingTime="0.00" waitingCount="0" stopTime="0.00" timeLoss="9.69" rerouteNo="0" devices="tripinfo_westEastTop.11 ssm_westEastTop.11" vType="carCustom" speedFactor="0.88" vaporized=""/>
    <tripinfo id="southEast.9" depart="74.00" departLane="southJunction_0" departPos="5.10" departSpeed="8.13" departDelay="0.39" arrival="213.00" arrivalLane="junctionEast_0" arrivalPos="492.80" arrivalSpeed="7.58" duration="139.00" routeLength="989.53" waitingTime="4.00" waitingCount="1" stopTime="0.00" timeLoss="19.47" rerouteNo="0" devices="tripinfo_southEast.9 ssm_southEast.9" vType="carCustom" speedFactor="0.93" vaporized=""/>
    <tripinfo id="southNorth.4" depart="82.00" departLane="southJunction_1" departPos="5.10" departSpeed="7.67" departDelay="0.49" arrival="218.00" arrivalLane="junctionNorth_0" arrivalPos="492.80" arrivalSpeed="8.04" duration="136.00" routeLength="995.01" waitingTime="2.00" waitingCount="1" stopTime="0.00" timeLoss="16.23" rerouteNo="0" devices="tripinfo_southNorth.4 ssm_southNorth.4" vType="carCustom" speedFactor="0.75" vaporized=""/>
    <tripinfo id="westEastBottom0.11" depart="90.00" departLane="westJunction_0" departPos="5.10" departSpeed="7.93" departDelay="0.64" arrival="224.00" arrivalLane="junctionEast_0" arrivalPos="492.80" arrivalSpeed="7.61" duration="134.00" routeLength="994.90" waitingTime="0.00" waitingCount="0" stopTime="0.00" timeLoss="13.80" rerouteNo="0" devices="tripinfo_westEastBottom0.11 ssm_westEastBottom0.11" vType="carCustom" speedFactor="0.87" vaporized=""/>
    <tripinfo id="westEastTop.12" depart="98.00" departLane="westJunction_1" departPos="5.10" departSpeed="8.30" departDelay="0.23" arrival="228.00" arrivalLane="junctionEast_0" arrivalPos="492.80" arrivalSpeed="8.04" duration="130.00" routeLength="994.90" waitingTime="0.00" waitingCount="0" stopTime="0.00" timeLoss="10.47" rerouteNo="0" devices="tripinfo_westEastTop.12 ssm_westEastTop.12" vType="carCustom" speedFactor="0.91" vaporized=""/>
    <tripinfo id="westEastTop.13" depart="102.00" departLane="westJunction_1" departPos="5.10" departSpeed="7.65" departDelay="0.41" arrival="233.00" arrivalLane="junctionEast_0" arrivalPos="492.80" arrivalSpeed="7.22" duration="131.00" routeLength="994.90" waitingTime="0.00" waitingCount="0" stopTime="0.00" timeLoss="10.73" rerouteNo="0" devices="tripinfo_westEastTop.13 ssm_westEastTop.13" vType="carCustom" speedFactor="0.86" vaporized=""/>
    <tripinfo id="westEastTop.14" depart="104.00" departLane="westJunction_1" departPos="5.10" departSpeed="8.07" departDelay="0.03" arrival="234.00" arrivalLane="junctionEast_1" arrivalPos="492.80" arrivalSpeed="8.25" duration="130.00" routeLength="994.90" waitingTime="0.00" waitingCount="0" stopTime="0.00" timeLoss="10.01" rerouteNo="0" devices="tripinfo_westEastTop.14 ssm_westEastTop.14" vType="carCustom" speedFactor="0.82" vaporized=""/>
    <tripinfo id="westEastBottom0.12" depart="104.00" departLane="westJunction_0" departPos="5.10" departSpeed="7.70" departDelay="0.10" arrival="235.00" arrivalLane="junctionEast_0" arrivalPos="492.80" arrivalSpeed="7.62" duration="131.00" routeLength="994.90" waitingTime="0.00" waitingCount="0" stopTime="0.00" timeLoss="11.33" rerouteNo="0" devices="tripinfo_westEastBottom0.12 ssm_westEastBottom0.12" vType="carCustom" speedFactor="0.99" vaporized=""/>
    <tripinfo id="southEast.10" depart="105.00" departLane="southJunction_0" departPos="5.10" departSpeed="8.02" departDelay="0.70" arrival="237.00" arrivalLane="junctionEast_1" arrivalPos="492.80" arrivalSpeed="7.04" duration="132.00" routeLength="989.53" waitingTime="0.00" waitingCount="0" stopTime="0.00" timeLoss="12.15" rerouteNo="0" devices="tripinfo_southEast.10 ssm_southEast.10" vType="carCustom" speedFactor="0.95" vaporized=""/>
    <tripinfo id="southNorth.5" depart="104.00" departLane="southJunction_1" departPos="5.10" departSpeed="8.09" departDelay="0.45" arrival="238.00" arrivalLane="junctionNorth_0" arrivalPos="492.80" arrivalSpeed="8.22" duration="134.00" routeLength="995.01" waitingTime="0.00" waitingCount="0" stopTime="0.00" timeLoss="14.26" rerouteNo="0" devices="tripinfo_southNorth.5 ssm_southNorth.5" vType="carCustom" speedFactor="0.97" vaporized=""/>
    <tripinfo id="westEastTop.15" depart="106.00" departLane="westJunction_1" departPos="5.10" departSpeed="7.08" departDelay="0.97" arrival="241.00" arrivalLane="junctionEast_1" arrivalPos="492.80" arrivalSpeed="8.33" duration="135.00" routeLength="994.90" waitingTime="2.00" waitingCount="1" stopTime="0.00" timeLoss="15.06" rerouteNo="0" devices="tripinfo_westEastTop.15 ssm_westEastTop.15" vType="carCustom" speedFactor="0.99" vaporized=""/>
    <tripinfo id="westEastBottom0.13" depart="112.00" departLane="westJunction_0" departPos="5.10" departSpeed="7.98" departDelay="0.93" arrival="242.00" arrivalLane="junctionEast_0" arrivalPos="492.80" arrivalSpeed="7.36" duration="130.00" routeLength="994.90" waitingTime="0.00" waitingCount="0" stopTime="0.00" timeLoss="10.34" rerouteNo="0" devices="tripinfo_westEastBottom0.13 ssm_westEastBottom0.13" vType="carCustom" speedFactor="0.79" vaporized=""/>
    <tripinfo id="westEastTop.16" depart="109.00" departLane="westJunction_1" departPos="5.10" departSpeed="7.70" departDelay="2.42" arrival="244.00" arrivalLane="junctionEast_1" arrivalPos="492.80" arrivalSpeed="7.72" duration="135.00" routeLength="994.90" waitingTime="1.00" waitingCount="1" stopTime="0.00" timeLoss="15.53" rerouteNo="0" devices="tripinfo_westEastTop.16 ssm_westEastTop.16" vType="carCustom" speedFactor="0.85" vaporized=""/>
    <tripinfo id="westEastTop.17" depart="115.00" departLane="westJunction_1" departPos="5.10" departSpeed="7.47" departDelay="0.22" arrival="246.00" arrivalLane="junctionEast_0" arrivalPos="492.80" arrivalSpeed="8.24" duration="131.00" routeLength="994.90" waitingTime="0.00" waitingCount="0" stopTime="0.00" timeLoss="11.25" rerouteNo="0" devices="tripinfo_westEastTop.17 ssm_westEastTop.17" vType="carCustom" speedFactor="0.92" vaporized=""/>
    <tripinfo id="westEastTop.18" depart="121.00" departLane="westJunction_1" departPos="5.10" departSpeed="7.55" departDelay="0.30" arrival="251.00" arrivalLane="junctionEast_0" arrivalPos="492.80" arrivalSpeed="8.15" duration="130.00" routeLength="994.90" waitingTime="0.00" waitingCount="0" stopTime="0.00" timeLoss="9.76" rerouteNo="0" devices="tripinfo_westEastTop.18 ssm_westEastTop.18" vType="carCustom" speedFactor="1.21" vaporized=""/>
    <tripinfo id="southEast.11" depart="119.00" departLane="southJunction_0" departPos="5.10" departSpeed="7.37" departDelay="0.28" arrival="253.00" arrivalLane="junctionEast_0" arrivalPos="492.80" arrivalSpeed="8.00" duration="134.00" routeLength="989.53" waitingTime="1.00" waitingCount="1" stopTime="0.00" timeLoss="14.26" rerouteNo="0" devices="tripinfo_southEast.11 ssm_southEast.11" vType="carCustom" speedFactor="1.08" vaporized=""/>
    <tripinfo id="southEast.12" depart="127.00" departLane="southJunction_0" departPos="5.10" departSpeed="7.44" departDelay="0.68" arrival="257.00" arrivalLane="junctionEast_0" arrivalPos="492.80" arrivalSpeed="7.59" duration="130.00" routeLength="989.53" waitingTime="0.00" waitingCount="0" stopTime="0.00" timeLoss="10.70" rerouteNo="0" devices="tripinfo_southEast.12 ssm_southEast.12" vType="carCustom" speedFactor="0.93" vaporized=""/>
    <tripinfo id="southNorth.6" depart="123.00" departLane="southJunction_1" departPos="5.10" departSpeed="7.53" departDelay="0.16" arrival="258.00" arrivalLane="junctionNorth_0" arrivalPos="492.80" arrivalSpeed="7.53" duration="135.00" routeLength="995.01" waitingTime="1.00" waitingCount="1" stopTime="0.00" timeLoss="15.27" rerouteNo="0" devices="tripinfo_southNorth.6 ssm_southNorth.6" vType="carCustom" speedFactor="0.90" vaporized=""/>
    <tripinfo id="southEast.13" depart="131.00" departLane="southJunction_0" departPos="5.10" departSpeed="8.32" departDelay="0.80" arrival="260.00" arrivalLane="junctionEast_0" arrivalPos="492.80" arrivalSpeed="7.53" duration="129.00" routeLength="989.53" waitingTime="0.00" waitingCount="0" stopTime="0.00" timeLoss="9.93" rerouteNo="0" devices="tripinfo_southEast.13 ssm_southEast.13" vType="carCustom" speedFactor="0.90" vaporized=""/>
    <tripinfo id="westEastBottom0.14" depart="134.00" departLane="westJunction_0" departPos="5.10" departSpeed="8.30" departDelay="0.34" arrival="263.00" arrivalLane="junctionEast_0" arrivalPos="492.80" arrivalSpeed="7.44" duration="129.00" routeLength="994.90" waitingTime="0.00" waitingCount="0" stopTime="0.00" timeLoss="8.89" rerouteNo="0" devices="tripinfo_westEastBottom0.14 ssm_westEastBottom0.14" vType="carCustom" speedFactor="0.94" vaporized=""/>
    <tripinfo id="southNorth.7" depart="125.00" departLane="southJunction_1" departPos="5.10" departSpeed="7.75" departDelay="0.68" arrival="268.00" arrivalLane="junctionNorth_0" arrivalPos="492.80" arrivalSpeed="7.19" duration="143.00" routeLength="995.01" waitingTime="6.00" waitingCount="1" stopTime="0.00" timeLoss="23.07" rerouteNo="0" devices="tripinfo_southNorth.7 ssm_southNorth.7" vType="carCustom" speedFactor="1.05" vaporized=""/>
    <tripinfo id="southEast.14" depart="139.00" departLane="southJunction_0" departPos="5.10" departSpeed="8.10" departDelay="0.50" arrival="269.00" arrivalLane="junctionEast_0" arrivalPos="492.80" arrivalSpeed="8.28" duration="130.00" routeLength="989.53" waitingTime="0.00" waitingCount="0" stopTime="0.00" timeLoss="10.59" rerouteNo="0" devices="tripinfo_southEast.14 ssm_southEast.14" vType="carCustom" speedFactor="0.99" vaporized=""/>
    <tripinfo id="southNorth.8" depart="131.00" departLane="southJunction_1" departPos="5.10" departSpeed="7.61" departDelay="0.14" arrival="270.00" arrivalLane="junctionNorth_0" arrivalPos="492.80" arrivalSpeed="7.45" duration="139.00" routeLength="995.01" waitingTime="4.00" waitingCount="1" stopTime="0.00" timeLoss="19.31" rerouteNo="0" devices="tripinfo_southNorth.8 ssm_southNorth.8" vType="carCustom" speedFactor="1.23" vaporized=""/>
    <tripinfo id="westEastTop.19" depart="136.00" departLane="westJunction_1" departPos="5.10" departSpeed="7.38" departDelay="0.53" arrival="273.00" arrivalLane="junctionEast_1" arrivalPos="492.80" arrivalSpeed="7.44" duration="137.00" routeLength="994.90" waitingTime="5.00" waitingCount="1" stopTime="0.00" timeLoss="16.70" rerouteNo="0" devices="tripinfo_westEastTop.19 ssm_westEastTop.19" vType="carCustom" speedFactor="1.07" vaporized=""/>
    <tripinfo id="westEastBottom0.15" depart="137.00" departLane="westJunction_0" departPos="5.10" departSpeed="8.02" departDelay="1.60" arrival="273.00" arrivalLane="junctionEast_0" arrivalPos="492.80" arrivalSpeed="7.19" duration="136.00" routeLength="994.90" waitingTime="4.00" waitingCount="1" stopTime="0.00" timeLoss="16.41" rerouteNo="0" devices="tripinfo_westEastBottom0.15 ssm_westEastBottom0.15" vType="carCustom" speedFactor="1.20" vaporized=""/>
    <tripinfo id="westEastTop.20" depart="138.00" departLane="westJunction_1" departPos="5.10" departSpeed="7.30" departDelay="0.64" arrival="276.00" arrivalLane="junctionEast_1" arrivalPos="492.80" arrivalSpeed="7.39" duration="138.00" routeLength="994.90" waitingTime="4.00" waitingCount="1" stopTime="0.00" timeLoss="17.72" rerouteNo="0" devices="tripinfo_westEastTop.20 ssm_westEastTop.20" vType="carCustom" speedFactor="0.93" vaporized=""/>
    <tripinfo id="westEastBottom0.16" depart="139.00" departLane="westJunction_0" departPos="5.10" departSpeed="7.45" departDelay="1.55" arrival="276.00" arrivalLane="junctionEast_0" arrivalPos="492.80" arrivalSpeed="7.08" duration="137.00" routeLength="994.90" waitingTime="2.00" waitingCount="1" stopTime="0.00" timeLoss="17.23" rerouteNo="0" devices="tripinfo_westEastBottom0.16 ssm_westEastBottom0.16" vType="carCustom" speedFactor="1.00" vaporized=""/>
    <tripinfo id="westEastTop.21" depart="141.00" departLane="westJunction_1" departPos="5.10" departSpeed="6.77" departDelay="0.10" arrival="278.00" arrivalLane="junctionEast_1" arrivalPos="492.80" arrivalSpeed="8.18" duration="137.00" routeLength="994.90" waitingTime="1.00" waitingCount="1" stopTime="0.00" timeLoss="17.07" rerouteNo="0" devices="tripinfo_westEastTop.21 ssm_westEastTop.21" vType="carCustom" speedFactor="1.08" vaporized=""/>