<?xml version="1.0" encoding="UTF-8"?>

<!-- generated on 2025-04-29 09:20:59 by Eclipse SUMO sumo Version 1.20.0
<configuration xmlns:xsi="http://www.w3.org/2001/XMLSchema-instance" xsi:noNamespaceSchemaLocation="http://sumo.dlr.de/xsd/sumoConfiguration.xsd">

    <input>
        <net-file value="nets/2lane_unprotected_right/2lane_unprotected_right.net.xml"/>
        <route-files value="nets/2lane_unprotected_right/2lane_unprotected_right.rou.xml"/>
    </input>

    <output>
        <tripinfo-output value="traces/transs50f1_s50_f0.5_random/0205_tripinfo.xml"/>
        <collision-output value="traces/transs50f1_s50_f0.5_random/0205_collisions.xml"/>
        <statistic-output value="traces/transs50f1_s50_f0.5_random/0205_statistics.xml"/>
    </output>

    <processing>
        <collision.action value="teleport"/>
        <collision.check-junctions value="true"/>
        <time-to-teleport value="-1"/>
        <waiting-time-memory value="1000"/>
        <max-depart-delay value="-1"/>
        <default.speeddev value="0.1"/>
    </processing>

    <report>
        <no-warnings value="true"/>
    </report>

    <ssm_device>
        <device.ssm.probability value="1.0"/>
        <device.ssm.measures value="BR"/>
        <device.ssm.file value="/Users/finn/Code/CausalKnowledgeTransfer-4-SafeRL/traces/transs50f1_s50_f0.5_random/0205_ssm.xml"/>
    </ssm_device>

    <traci_server>
        <remote-port value="64945"/>
    </traci_server>

    <random_number>
        <random value="true"/>
    </random_number>

</configuration>
-->

<tripinfos xmlns:xsi="http://www.w3.org/2001/XMLSchema-instance" xsi:noNamespaceSchemaLocation="http://sumo.dlr.de/xsd/tripinfo_file.xsd">
    <tripinfo id="southEast.2" depart="21.00" departLane="southJunction_0" departPos="5.10" departSpeed="7.66" departDelay="0.72" arrival="88.00" arrivalLane="junctionEast_0" arrivalPos="492.80" arrivalSpeed="5.89" duration="67.00" routeLength="989.53" waitingTime="0.00" waitingCount="0" stopTime="0.00" timeLoss="6.57" rerouteNo="0" devices="tripinfo_southEast.2 ssm_southEast.2" vType="carCustom" speedFactor="1.02" vaporized="teleport"/>
    <tripinfo id="westEastTop.0" depart="4.00" departLane="westJunction_1" departPos="5.10" departSpeed="8.33" departDelay="0.58" arrival="133.00" arrivalLane="junctionEast_0" arrivalPos="492.80" arrivalSpeed="7.64" duration="129.00" routeLength="994.90" waitingTime="0.00" waitingCount="0" stopTime="0.00" timeLoss="8.93" rerouteNo="0" devices="tripinfo_westEastTop.0 ssm_westEastTop.0" vType="carCustom" speedFactor="1.00" vaporized=""/>
    <tripinfo id="southEast.0" depart="3.00" departLane="southJunction_0" departPos="5.10" departSpeed="8.33" departDelay="0.02" arrival="136.00" arrivalLane="junctionEast_0" arrivalPos="492.80" arrivalSpeed="7.12" duration="133.00" routeLength="989.53" waitingTime="0.00" waitingCount="0" stopTime="0.00" timeLoss="13.32" rerouteNo="0" devices="tripinfo_southEast.0 ssm_southEast.0" vType="carCustom" speedFactor="1.17" vaporized=""/>
    <tripinfo id="southEast.1" depart="9.00" departLane="southJunction_0" departPos="5.10" departSpeed="7.59" departDelay="0.32" arrival="139.00" arrivalLane="junctionEast_0" arrivalPos="492.80" arrivalSpeed="7.57" duration="130.00" routeLength="989.53" waitingTime="0.00" waitingCount="0" stopTime="0.00" timeLoss="10.13" rerouteNo="0" devices="tripinfo_southEast.1 ssm_southEast.1" vType="carCustom" speedFactor="0.99" vaporized=""/>
    <tripinfo id="southNorth.0" depart="7.00" departLane="southJunction_1" departPos="5.10" departSpeed="8.33" departDelay="0.95" arrival="141.00" arrivalLane="junctionNorth_0" arrivalPos="492.80" arrivalSpeed="7.08" duration="134.00" routeLength="995.01" waitingTime="1.00" waitingCount="1" stopTime="0.00" timeLoss="13.78" rerouteNo="0" devices="tripinfo_southNorth.0 ssm_southNorth.0" vType="carCustom" speedFactor="0.89" vaporized=""/>
    <tripinfo id="westEastTop.1" depart="14.00" departLane="westJunction_1" departPos="5.10" departSpeed="8.27" departDelay="0.10" arrival="146.00" arrivalLane="junctionEast_0" arrivalPos="492.80" arrivalSpeed="7.73" duration="132.00" routeLength="994.90" waitingTime="0.00" waitingCount="0" stopTime="0.00" timeLoss="12.22" rerouteNo="0" devices="tripinfo_westEastTop.1 ssm_westEastTop.1" vType="carCustom" speedFactor="0.94" vaporized=""/>
    <tripinfo id="westEastBottom0.0" depart="23.00" departLane="westJunction_0" departPos="5.10" departSpeed="8.33" departDelay="0.51" arrival="152.00" arrivalLane="junctionEast_0" arrivalPos="492.80" arrivalSpeed="7.63" duration="129.00" routeLength="994.90" waitingTime="0.00" waitingCount="0" stopTime="0.00" timeLoss="9.08" rerouteNo="0" devices="tripinfo_westEastBottom0.0 ssm_westEastBottom0.0" vType="carCustom" speedFactor="0.92" vaporized=""/>
    <tripinfo id="westEastTop.2" depart="29.00" departLane="westJunction_1" departPos="5.10" departSpeed="8.15" departDelay="0.02" arrival="159.00" arrivalLane="junctionEast_0" arrivalPos="492.80" arrivalSpeed="7.90" duration="130.00" routeLength="994.90" waitingTime="0.00" waitingCount="0" stopTime="0.00" timeLoss="9.75" rerouteNo="0" devices="tripinfo_westEastTop.2 ssm_westEastTop.2" vType="carCustom" speedFactor="1.11" vaporized=""/>
    <tripinfo id="southEast.3" depart="31.00" departLane="southJunction_0" departPos="5.10" departSpeed="8.12" departDelay="0.21" arrival="161.00" arrivalLane="junctionEast_0" arrivalPos="492.80" arrivalSpeed="7.85" duration="130.00" routeLength="989.53" waitingTime="0.00" waitingCount="0" stopTime="0.00" timeLoss="10.29" rerouteNo="0" devices="tripinfo_southEast.3 ssm_southEast.3" vType="carCustom" speedFactor="0.98" vaporized=""/>
    <tripinfo id="southNorth.1" depart="26.00" departLane="southJunction_1" departPos="5.10" departSpeed="8.12" departDelay="0.90" arrival="162.00" arrivalLane="junctionNorth_0" arrivalPos="492.80" arrivalSpeed="8.18" duration="136.00" routeLength="995.01" waitingTime="3.00" waitingCount="1" stopTime="0.00" timeLoss="16.55" rerouteNo="0" devices="tripinfo_southNorth.1 ssm_southNorth.1" vType="carCustom" speedFactor="0.91" vaporized=""/>
    <tripinfo id="southNorth.2" depart="31.00" departLane="southJunction_1" departPos="5.10" departSpeed="8.05" departDelay="0.34" arrival="165.00" arrivalLane="junctionNorth_0" arrivalPos="492.80" arrivalSpeed="7.69" duration="134.00" routeLength="995.01" waitingTime="0.00" waitingCount="0" stopTime="0.00" timeLoss="14.41" rerouteNo="0" devices="tripinfo_southNorth.2 ssm_southNorth.2" vType="carCustom" speedFactor="0.85" vaporized=""/>
    <tripinfo id="westEastBottom0.1" depart="39.00" departLane="westJunction_0" departPos="5.10" departSpeed="8.01" departDelay="0.21" arrival="168.00" arrivalLane="junctionEast_0" arrivalPos="492.80" arrivalSpeed="7.82" duration="129.00" routeLength="994.90" waitingTime="0.00" waitingCount="0" stopTime="0.00" timeLoss="9.48" rerouteNo="0" devices="tripinfo_westEastBottom0.1 ssm_westEastBottom0.1" vType="carCustom" speedFactor="0.99" vaporized=""/>
    <tripinfo id="westEastTop.3" depart="40.00" departLane="westJunction_1" departPos="5.10" departSpeed="7.10" departDelay="0.18" arrival="169.00" arrivalLane="junctionEast_1" arrivalPos="492.80" arrivalSpeed="7.96" duration="129.00" routeLength="994.90" waitingTime="0.00" waitingCount="0" stopTime="0.00" timeLoss="9.48" rerouteNo="0" devices="tripinfo_westEastTop.3 ssm_westEastTop.3" vType="carCustom" speedFactor="0.84" vaporized=""/>
    <tripinfo id="westEastTop.4" depart="42.00" departLane="westJunction_1" departPos="5.10" departSpeed="7.84" departDelay="0.04" arrival="172.00" arrivalLane="junctionEast_0" arrivalPos="492.80" arrivalSpeed="7.68" duration="130.00" routeLength="994.90" waitingTime="0.00" waitingCount="0" stopTime="0.00" timeLoss="10.06" rerouteNo="0" devices="tripinfo_westEastTop.4 ssm_westEastTop.4" vType="carCustom" speedFactor="0.95" vaporized=""/>
    <tripinfo id="southEast.4" depart="46.00" departLane="southJunction_0" departPos="5.10" departSpeed="7.69" departDelay="0.74" arrival="177.00" arrivalLane="junctionEast_0" arrivalPos="492.80" arrivalSpeed="7.34" duration="131.00" routeLength="989.53" waitingTime="1.00" waitingCount="1" stopTime="0.00" timeLoss="11.53" rerouteNo="0" devices="tripinfo_southEast.4 ssm_southEast.4" vType="carCustom" speedFactor="0.94" vaporized=""/>
    <tripinfo id="southEast.5" depart="48.00" departLane="southJunction_0" departPos="5.10" departSpeed="7.70" departDelay="0.62" arrival="180.00" arrivalLane="junctionEast_0" arrivalPos="492.80" arrivalSpeed="7.28" duration="132.00" routeLength="989.53" waitingTime="0.00" waitingCount="0" stopTime="0.00" timeLoss="12.29" rerouteNo="0" devices="tripinfo_southEast.5 ssm_southEast.5" vType="carCustom" speedFactor="0.96" vaporized=""/>
    <tripinfo id="southNorth.3" depart="45.00" departLane="southJunction_1" departPos="5.10" departSpeed="8.26" departDelay="0.43" arrival="183.00" arrivalLane="junctionNorth_0" arrivalPos="492.80" arrivalSpeed="7.33" duration="138.00" routeLength="995.01" waitingTime="4.00" waitingCount="1" stopTime="0.00" timeLoss="18.06" rerouteNo="0" devices="tripinfo_southNorth.3 ssm_southNorth.3" vType="carCustom" speedFactor="1.11" vaporized=""/>
    <tripinfo id="southNorth.4" depart="47.00" departLane="southJunction_1" departPos="5.10" departSpeed="7.48" departDelay="1.90" arrival="185.00" arrivalLane="junctionNorth_0" arrivalPos="492.80" arrivalSpeed="8.02" duration="138.00" routeLength="995.01" waitingTime="3.00" waitingCount="1" stopTime="0.00" timeLoss="18.30" rerouteNo="0" devices="tripinfo_southNorth.4 ssm_southNorth.4" vType="carCustom" speedFactor="1.02" vaporized=""/>
    <tripinfo id="westEastTop.5" depart="52.00" departLane="westJunction_1" departPos="5.10" departSpeed="8.27" departDelay="0.99" arrival="188.00" arrivalLane="junctionEast_0" arrivalPos="492.80" arrivalSpeed="7.61" duration="136.00" routeLength="994.90" waitingTime="3.00" waitingCount="1" stopTime="0.00" timeLoss="15.70" rerouteNo="0" devices="tripinfo_westEastTop.5 ssm_westEastTop.5" vType="carCustom" speedFactor="1.01" vaporized=""/>
    <tripinfo id="westEastBottom0.2" depart="59.00" departLane="westJunction_0" departPos="5.10" departSpeed="7.81" departDelay="0.42" arrival="189.00" arrivalLane="junctionEast_1" arrivalPos="492.80" arrivalSpeed="7.07" duration="130.00" routeLength="994.90" waitingTime="0.00" waitingCount="0" stopTime="0.00" timeLoss="10.33" rerouteNo="0" devices="tripinfo_westEastBottom0.2 ssm_westEastBottom0.2" vType="carCustom" speedFactor="0.84" vaporized=""/>
    <tripinfo id="southNorth.5" depart="50.00" departLane="southJunction_1" departPos="5.10" departSpeed="7.91" departDelay="0.39" arrival="192.00" arrivalLane="junctionNorth_0" arrivalPos="492.80" arrivalSpeed="8.30" duration="142.00" routeLength="995.01" waitingTime="4.00" waitingCount="2" stopTime="0.00" timeLoss="22.15" rerouteNo="0" devices="tripinfo_southNorth.5 ssm_southNorth.5" vType="carCustom" speedFactor="0.99" vaporized=""/>
    <tripinfo id="westEastBottom0.11" depart="127.00" departLane="westJunction_0" departPos="5.10" departSpeed="7.12" departDelay="0.24" arrival="192.00" arrivalLane="junctionEast_0" arrivalPos="492.80" arrivalSpeed="8.29" duration="65.00" routeLength="994.90" waitingTime="0.00" waitingCount="0" stopTime="0.00" timeLoss="4.65" rerouteNo="0" devices="tripinfo_westEastBottom0.11 ssm_westEastBottom0.11" vType="carCustom" speedFactor="0.92" vaporized="teleport"/>
    <tripinfo id="southNorth.6" depart="53.00" departLane="southJunction_1" departPos="5.10" departSpeed="8.00" departDelay="0.95" arrival="195.00" arrivalLane="junctionNorth_0" arrivalPos="492.80" arrivalSpeed="7.07" duration="142.00" routeLength="995.01" waitingTime="4.00" waitingCount="2" stopTime="0.00" timeLoss="22.50" rerouteNo="0" devices="tripinfo_southNorth.6 ssm_southNorth.6" vType="carCustom" speedFactor="1.11" vaporized=""/>
    <tripinfo id="westEastTop.6" depart="65.00" departLane="westJunction_1" departPos="5.10" departSpeed="7.36" departDelay="0.77" arrival="197.00" arrivalLane="junctionEast_1" arrivalPos="492.80" arrivalSpeed="7.30" duration="132.00" routeLength="994.90" waitingTime="1.00" waitingCount="1" stopTime="0.00" timeLoss="12.54" rerouteNo="0" devices="tripinfo_westEastTop.6 ssm_westEastTop.6" vType="carCustom" speedFactor="1.11" vaporized=""/>
    <tripinfo id="westEastBottom0.3" depart="61.00" departLane="westJunction_0" departPos="5.10" departSpeed="7.18" departDelay="2.16" arrival="198.00" arrivalLane="junctionEast_0" arrivalPos="492.80" arrivalSpeed="7.82" duration="137.00" routeLength="994.90" waitingTime="2.00" waitingCount="1" stopTime="0.00" timeLoss="17.29" rerouteNo="0" devices="tripinfo_westEastBottom0.3 ssm_westEastBottom0.3" vType="carCustom" speedFactor="0.88" vaporized=""/>
    <tripinfo id="westEastBottom0.4" depart="72.00" departLane="westJunction_0" departPos="5.10" departSpeed="7.84" departDelay="0.87" arrival="202.00" arrivalLane="junctionEast_0" arrivalPos="492.80" arrivalSpeed="7.65" duration="130.00" routeLength="994.90" waitingTime="0.00" waitingCount="0" stopTime="0.00" timeLoss="9.81" rerouteNo="0" devices="tripinfo_westEastBottom0.4 ssm_westEastBottom0.4" vType="carCustom" speedFactor="0.91" vaporized=""/>
    <tripinfo id="southNorth.7" depart="66.00" departLane="southJunction_1" departPos="5.10" departSpeed="7.36" departDelay="0.46" arrival="204.00" arrivalLane="junctionNorth_0" arrivalPos="492.80" arrivalSpeed="8.17" duration="138.00" routeLength="995.01" waitingTime="3.00" waitingCount="1" stopTime="0.00" timeLoss="18.03" rerouteNo="0" devices="tripinfo_southNorth.7 ssm_southNorth.7" vType="carCustom" speedFactor="0.96" vaporized=""/>
    <tripinfo id="southNorth.8" depart="73.00" departLane="southJunction_1" departPos="5.10" departSpeed="7.65" departDelay="0.88" arrival="206.00" arrivalLane="junctionNorth_0" arrivalPos="492.80" arrivalSpeed="7.14" duration="133.00" routeLength="995.01" waitingTime="0.00" waitingCount="0" stopTime="0.00" timeLoss="13.54" rerouteNo="0" devices="tripinfo_southNorth.8 ssm_southNorth.8" vType="carCustom" speedFactor="0.86" vaporized=""/>
    <tripinfo id="westEastTop.7" depart="72.00" departLane="westJunction_1" departPos="5.10" departSpeed="7.77" departDelay="0.13" arrival="209.00" arrivalLane="junctionEast_0" arrivalPos="492.80" arrivalSpeed="7.35" duration="137.00" routeLength="994.90" waitingTime="4.00" waitingCount="1" stopTime="0.00" timeLoss="16.83" rerouteNo="0" devices="tripinfo_westEastTop.7 ssm_westEastTop.7" vType="carCustom" speedFactor="1.01" vaporized=""/>
    <tripinfo id="westEastTop.8" depart="76.00" departLane="westJunction_1" departPos="5.10" departSpeed="7.23" departDelay="0.43" arrival="212.00" arrivalLane="junctionEast_0" arrivalPos="492.80" arrivalSpeed="7.64" duration="136.00" routeLength="994.90" waitingTime="2.00" waitingCount="1" stopTime="0.00" timeLoss="16.01" rerouteNo="0" devices="tripinfo_westEastTop.8 ssm_westEastTop.8" vType="carCustom" speedFactor="1.06" vaporized=""/>
    <tripinfo id="westEastTop.9" depart="80.00" departLane="westJunction_1" departPos="5.10" departSpeed="7.58" departDelay="0.57" arrival="213.00" arrivalLane="junctionEast_0" arrivalPos="492.80" arrivalSpeed="7.85" duration="133.00" routeLength="994.90" waitingTime="0.00" waitingCount="0" stopTime="0.00" timeLoss="13.22" rerouteNo="0" devices="tripinfo_westEastTop.9 ssm_westEastTop.9" vType="carCustom" speedFactor="0.96" vaporized=""/>
    <tripinfo id="westEastBottom0.5" depart="86.00" departLane="westJunction_0" departPos="5.10" departSpeed="7.75" departDelay="0.81" arrival="215.00" arrivalLane="junctionEast_0" arrivalPos="492.80" arrivalSpeed="7.59" duration="129.00" routeLength="994.90" waitingTime="0.00" waitingCount="0" stopTime="0.00" timeLoss="9.38" rerouteNo="0" devices="tripinfo_westEastBottom0.5 ssm_westEastBottom0.5" vType="carCustom" speedFactor="0.98" vaporized=""/>
    <tripinfo id="westEastTop.10" depart="85.00" departLane="westJunction_1" departPos="5.10" departSpeed="7.56" departDelay="0.19" arrival="216.00" arrivalLane="junctionEast_1" arrivalPos="492.80" arrivalSpeed="7.62" duration="131.00" routeLength="994.90" waitingTime="0.00" waitingCount="0" stopTime="0.00" timeLoss="11.57" rerouteNo="0" devices="tripinfo_westEastTop.10 ssm_westEastTop.10" vType="carCustom" speedFactor="1.06" vaporized=""/>
    <tripinfo id="southEast.6" depart="84.00" departLane="southJunction_0" departPos="5.10" departSpeed="7.18" departDelay="0.60" arrival="218.00" arrivalLane="junctionEast_0" arrivalPos="492.80" arrivalSpeed="8.16" duration="134.00" routeLength="989.53" waitingTime="2.00" waitingCount="1" stopTime="0.00" timeLoss="14.30" rerouteNo="0" devices="tripinfo_southEast.6 ssm_southEast.6" vType="carCustom" speedFactor="0.90" vaporized=""/>
    <tripinfo id="westEastTop.11" depart="87.00" departLane="westJunction_1" departPos="5.10" departSpeed="8.00" departDelay="1.32" arrival="219.00" arrivalLane="junctionEast_1" arrivalPos="492.80" arrivalSpeed="7.79" duration="132.00" routeLength="994.90" waitingTime="0.00" waitingCount="0" stopTime="0.00" timeLoss="11.68" rerouteNo="0" devices="tripinfo_westEastTop.11 ssm_westEastTop.11" vType="carCustom" speedFactor="0.88" vaporized=""/>
    <tripinfo id="southEast.7" depart="87.00" departLane="southJunction_0" departPos="5.10" departSpeed="8.29" departDelay="1.82" arrival="221.00" arrivalLane="junctionEast_0" arrivalPos="492.80" arrivalSpeed="7.14" duration="134.00" routeLength="989.53" waitingTime="1.00" waitingCount="1" stopTime="0.00" timeLoss="14.01" rerouteNo="0" devices="tripinfo_southEast.7 ssm_southEast.7" vType="carCustom" speedFactor="0.99" vaporized=""/>
    <tripinfo id="westEastTop.12" depart="89.00" departLane="westJunction_1" departPos="5.10" departSpeed="6.50" departDelay="3.01" arrival="221.00" arrivalLane="junctionEast_1" arrivalPos="492.80" arrivalSpeed="7.14" duration="132.00" routeLength="994.90" waitingTime="0.00" waitingCount="0" stopTime="0.00" timeLoss="12.06" rerouteNo="0" devices="tripinfo_westEastTop.12 ssm_westEastTop.12" vType="carCustom" speedFactor="1.11" vaporized=""/>
    <tripinfo id="southNorth.9" depart="87.00" departLane="southJunction_1" departPos="5.10" departSpeed="7.25" departDelay="0.99" arrival="223.00" arrivalLane="junctionNorth_0" arrivalPos="492.80" arrivalSpeed="8.26" duration="136.00" routeLength="995.01" waitingTime="3.00" waitingCount="1" stopTime="0.00" timeLoss="16.52" rerouteNo="0" devices="tripinfo_southNorth.9 ssm_southNorth.9" vType="carCustom" speedFactor="1.06" vaporized=""/>
    <tripinfo id="southNorth.10" depart="91.00" departLane="southJunction_1" departPos="5.10" departSpeed="7.87" departDelay="0.22" arrival="226.00" arrivalLane="junctionNorth_0" arrivalPos="492.80" arrivalSpeed="7.10" duration="135.00" routeLength="995.01" waitingTime="1.00" waitingCount="1" stopTime="0.00" timeLoss="15.17" rerouteNo="0" devices="tripinfo_southNorth.10 ssm_southNorth.10" vType="carCustom" speedFactor="1.11" vaporized=""/>
    <tripinfo id="southEast.8" depart="95.00" departLane="southJunction_0" departPos="5.10" departSpeed="7.11" departDelay="0.34" arrival="226.00" arrivalLane="junctionEast_0" arrivalPos="492.80" arrivalSpeed="7.37" duration="131.00" routeLength="989.53" waitingTime="0.00" waitingCount="0" stopTime="0.00" timeLoss="11.40" rerouteNo="0" devices="tripinfo_southEast.8 ssm_southEast.8" vType="carCustom" speedFactor="1.00" vaporized=""/>
    <tripinfo id="westEastTop.13" depart="96.00" departLane="westJunction_1" departPos="5.10" departSpeed="7.85" departDelay="0.18" arrival="227.00" arrivalLane="junctionEast_1" arrivalPos="492.80" arrivalSpeed="8.12" duration="131.00" routeLength="994.90" waitingTime="0.00" waitingCount="0" stopTime="0.00" timeLoss="10.75" rerouteNo="0" devices="tripinfo_westEastTop.13 ssm_westEastTop.13" vType="carCustom" speedFactor="1.04" vaporized=""/>
    <tripinfo id="westEastBottom0.6" depart="93.00" departLane="westJunction_0" departPos="5.10" departSpeed="8.31" departDelay="0.27" arrival="228.00" arrivalLane="junctionEast_0" arrivalPos="492.80" arrivalSpeed="7.40" duration="135.00" routeLength="994.90" waitingTime="1.00" waitingCount="1" stopTime="0.00" timeLoss="15.23" rerouteNo="0" devices="tripinfo_westEastBottom0.6 ssm_westEastBottom0.6" vType="carCustom" speedFactor="0.88" vaporized=""/>
    <tripinfo id="westEastBottom0.7" depart="96.00" departLane="westJunction_0" departPos="5.10" departSpeed="7.94" departDelay="2.47" arrival="230.00" arrivalLane="junctionEast_0" arrivalPos="492.80" arrivalSpeed="8.26" duration="134.00" routeLength="994.90" waitingTime="1.00" waitingCount="1" stopTime="0.00" timeLoss="14.53" rerouteNo="0" devices="tripinfo_westEastBottom0.7 ssm_westEastBottom0.7" vType="carCustom" speedFactor="1.11" vaporized=""/>
    <tripinfo id="southNorth.11" depart="95.00" departLane="southJunction_1" departPos="5.10" departSpeed="8.10" departDelay="0.63" arrival="233.00" arrivalLane="junctionNorth_0" arrivalPos="492.80" arrivalSpeed="7.53" duration="138.00" routeLength="995.01" waitingTime="1.00" waitingCount="1" stopTime="0.00" timeLoss="17.97" rerouteNo="0" devices="tripinfo_southNorth.11 ssm_southNorth.11" vType="carCustom" speedFactor="0.93" vaporized=""/>
    <tripinfo id="southEast.9" depart="97.00" departLane="southJunction_0" departPos="5.10" departSpeed="7.07" departDelay="0.88" arrival="233.00" arrivalLane="junctionEast_0" arrivalPos="492.80" arrivalSpeed="7.89" duration="136.00" routeLength="989.53" waitingTime="2.00" waitingCount="1" stopTime="0.00" timeLoss="16.40" rerouteNo="0" devices="tripinfo_southEast.9 ssm_southEast.9" vType="carCustom" speedFactor="1.09" vaporized=""/>
    <tripinfo id="southEast.10" depart="103.00" departLane="southJunction_0" departPos="5.10" departSpeed="7.84" departDelay="0.86" arrival="235.00" arrivalLane="junctionEast_0" arrivalPos="492.80" arrivalSpeed="7.80" duration="132.00" routeLength="989.53" waitingTime="0.00" waitingCount="0" stopTime="0.00" timeLoss="12.35" rerouteNo="0" devices="tripinfo_southEast.10 ssm_southEast.10" vType="carCustom" speedFactor="1.03" vaporized=""/>
    <tripinfo id="southNorth.12" depart="103.00" departLane="southJunction_1" departPos="5.10" departSpeed="8.20" departDelay="0.52" arrival="236.00" arrivalLane="junctionNorth_0" arrivalPos="492.80" arrivalSpeed="7.32" duration="133.00" routeLength="995.01" waitingTime="0.00" waitingCount="0" stopTime="0.00" timeLoss="12.78" rerouteNo="0" devices="tripinfo_southNorth.12 ssm_southNorth.12" vType="carCustom" speedFactor="1.00" vaporized=""/>
    <tripinfo id="westEastBottom0.8" depart="106.00" departLane="westJunction_0" departPos="5.10" departSpeed="7.81" departDelay="0.89" arrival="238.00" arrivalLane="junctionEast_0" arrivalPos="492.80" arrivalSpeed="7.29" duration="132.00" routeLength="994.90" waitingTime="0.00" waitingCount="0" stopTime="0.00" timeLoss="11.78" rerouteNo="0" devices="tripinfo_westEastBottom0.8 ssm_westEastBottom0.8" vType="carCustom" speedFactor="0.81" vaporized=""/>
    <tripinfo id="westEastTop.14" depart="108.00" departLane="westJunction_1" departPos="5.10" departSpeed="7.52" departDelay="0.20" arrival="238.00" arrivalLane="junctionEast_1" arrivalPos="492.80" arrivalSpeed="7.15" duration="130.00" routeLength="994.90" waitingTime="0.00" waitingCount="0" stopTime="0.00" timeLoss="10.55" rerouteNo="0" devices="tripinfo_westEastTop.14 ssm_westEastTop.14" vType="carCustom" speedFactor="0.90" vaporized=""/>
    <tripinfo id="westEastBottom0.9" depart="109.00" departLane="westJunction_0" departPos="5.10" departSpeed="7.59" departDelay="0.24" arrival="240.00" arrivalLane="junctionEast_0" arrivalPos="492.80" arrivalSpeed="7.67" duration="131.00" routeLength="994.90" waitingTime="0.00" waitingCount="0" stopTime="0.00" timeLoss="11.47" rerouteNo="0" devices="tripinfo_westEastBottom0.9 ssm_westEastBottom0.9" vType="carCustom" speedFactor="0.94" vaporized=""/>
    <tripinfo id="southNorth.13" depart="107.00" departLane="southJunction_1" departPos="5.10" departSpeed="8.05" departDelay="0.82" arrival="244.00" arrivalLane="junctionNorth_0" arrivalPos="492.80" arrivalSpeed="7.77" duration="137.00" routeLength="995.01" waitingTime="2.00" waitingCount="1" stopTime="0.00" timeLoss="16.66" rerouteNo="0" devices="tripinfo_southNorth.13 ssm_southNorth.13" vType="carCustom" speedFactor="1.01" vaporized=""/>
    <tripinfo id="westEastTop.15" depart="112.00" departLane="westJunction_1" departPos="5.10" departSpeed="7.85" departDelay="0.35" arrival="248.00" arrivalLane="junctionEast_1" arrivalPos="492.80" arrivalSpeed="7.66" duration="136.00" routeLength="994.90" waitingTime="1.00" waitingCount="1" stopTime="0.00" timeLoss="16.28" rerouteNo="0" devices="tripinfo_westEastTop.15 ssm_westEastTop.15" vType="carCustom" speedFactor="1.06" vaporized=""/>
    <tripinfo id="westEastBottom0.10" depart="117.00" departLane="westJunction_0" departPos="5.10" departSpeed="8.11" departDelay="0.11" arrival="248.00" arrivalLane="junctionEast_0" arrivalPos="492.80" arrivalSpeed="7.51" duration="131.00" routeLength="994.90" waitingTime="0.00" waitingCount="0" stopTime="0.00" timeLoss="11.01" rerouteNo="0" devices="tripinfo_westEastBottom0.10 ssm_westEastBottom0.10" vType="carCustom" speedFactor="1.12" vaporized=""/>
    <tripinfo id="westEastTop.16" depart="117.00" departLane="westJunction_1" departPos="5.10" departSpeed="7.50" departDelay="0.75" arrival="250.00" arrivalLane="junctionEast_0" arrivalPos="492.80" arrivalSpeed="7.56" duration="133.00" routeLength="994.90" waitingTime="0.00" waitingCount="0" stopTime="0.00" timeLoss="13.41" rerouteNo="0" devices="tripinfo_westEastTop.16 ssm_westEastTop.16" vType="carCustom" speedFactor="1.01" vaporized=""/>
    <tripinfo id="westEastTop.17" depart="119.00" departLane="westJunction_1" departPos="5.10" departSpeed="7.79" departDelay="2.00" arrival="253.00" arrivalLane="junctionEast_0" arrivalPos="492.80" arrivalSpeed="7.93" duration="134.00" routeLength="994.90" waitingTime="0.00" waitingCount="0" stopTime="0.00" timeLoss="13.94" rerouteNo="0" devices="tripinfo_westEastTop.17 ssm_westEastTop.17" vType="carCustom" speedFactor="0.92" vaporized=""/>
    <tripinfo id="westEastTop.18" depart="122.00" departLane="westJunction_1" departPos="5.10" departSpeed="6.79" departDelay="0.51" arrival="255.00" arrivalLane="junctionEast_1" arrivalPos="492.80" arrivalSpeed="7.15" duration="133.00" routeLength="994.90" waitingTime="0.00" waitingCount="0" stopTime="0.00" timeLoss="13.55" rerouteNo="0" devices="tripinfo_westEastTop.18 ssm_westEastTop.18" vType="carCustom" speedFactor="0.99" vaporized=""/>
    <tripinfo id="southEast.11" depart="126.00" departLane="southJunction_0" departPos="5.10" departSpeed="7.27" departDelay="0.75" arrival="256.00" arrivalLane="junctionEast_0" arrivalPos="492.80" arrivalSpeed="7.72" duration="130.00" routeLength="989.53" waitingTime="0.00" waitingCount="0" stopTime="0.00" timeLoss="10.03" rerouteNo="0" devices="tripinfo_southEast.11 ssm_southEast.11" vType="carCustom" speedFactor="1.07" vaporized=""/>
    <tripinfo id="westEastTop.19" depart="125.00" departLane="westJunction_1" departPos="5.10" departSpeed="7.24" departDelay="0.55" arrival="257.00" arrivalLane="junctionEast_1" arrivalPos="492.80" arrivalSpeed="7.61" duration="132.00" routeLength="994.90" waitingTime="0.00" waitingCount="0" stopTime="0.00" timeLoss="12.52" rerouteNo="0" devices="tripinfo_westEastTop.19 ssm_westEastTop.19" vType="carCustom" speedFactor="0.95" vaporized=""/>
    <tripinfo id="southNorth.14" depart="120.00" departLane="southJunction_1" departPos="5.10" departSpeed="7.58" departDelay="0.05" arrival="260.00" arrivalLane="junctionNorth_0" arrivalPos="492.80" arrivalSpeed="8.28" duration="140.00" routeLength="995.01" waitingTime="7.00" waitingCount="1" stopTime="0.00" timeLoss="19.68" rerouteNo="0" devices="tripinfo_southNorth.14 ssm_southNorth.14" vType="carCustom" speedFactor="0.87" vaporized=""/>
    <tripinfo id="westEastBottom0.12" depart="129.00" departLane="westJunction_0" departPos="5.10" departSpeed="8.08" departDelay="1.45" arrival="264.00" arrivalLane="junctionEast_0" arrivalPos="492.80" arrivalSpeed="8.29" duration="135.00" routeLength="994.90" waitingTime="2.00" waitingCount="1" stopTime="0.00" timeLoss="15.27" rerouteNo="0" devices="tripinfo_westEastBottom0.12 ssm_westEastBottom0.12" vType="carCustom" speedFactor="1.06" vaporized=""/>
    <tripinfo id="westEastTop.20" depart="127.00" departLane="westJunction_1" departPos="5.10" departSpeed="7.25" departDelay="1.93" arrival="265.00" arrivalLane="junctionEast_0" arrivalPos="492.80" arrivalSpeed="7.18" duration="138.00" routeLength="994.90" waitingTime="2.00" waitingCount="1" stopTime="0.00" timeLoss="17.92" rerouteNo="0" devices="tripinfo_westEastTop.20 ssm_westEastTop.20" vType="carCustom" speedFactor="0.79" vaporized=""/>
    <tripinfo id="westEastBottom0.13" depart="131.00" departLane="westJunction_0" departPos="5.10" departSpeed="7.51" departDelay="2.10" arrival="267.00" arrivalLane="junctionEast_0" arrivalPos="492.80" arrivalSpeed="8.18" duration="136.00" routeLength="994.90" waitingTime="1.00" waitingCount="1" stopTime="0.00" timeLoss="16.38" rerouteNo="0" devices="tripinfo_westEastBottom0.13 ssm_westEastBottom0.13" vType="carCustom" speedFactor="0.76" vaporized=""/>
    <tripinfo id="westEastTop.21" depart="132.00" departLane="westJunction_1" departPos="5.10" departSpeed="7.96" departDelay="0.86" arrival="268.00" arrivalLane="junctionEast_1" arrivalPos="492.80" arrivalSpeed="7.74" duration="136.00" routeLength="994.90" waitingTime="1.00" waitingCount="1" stopTime="0.00" timeLoss="16.19" rerouteNo="0" devices="tripinfo_westEastTop.21 ssm_westEastTop.21" vType="carCustom" speedFactor="0.94" vaporized=""/>