<?xml version="1.0" encoding="UTF-8"?>

<!-- generated on 2025-04-29 09:37:41 by Eclipse SUMO sumo Version 1.20.0
<configuration xmlns:xsi="http://www.w3.org/2001/XMLSchema-instance" xsi:noNamespaceSchemaLocation="http://sumo.dlr.de/xsd/sumoConfiguration.xsd">

    <input>
        <net-file value="nets/2lane_unprotected_right/2lane_unprotected_right.net.xml"/>
        <route-files value="nets/2lane_unprotected_right/2lane_unprotected_right.rou.xml"/>
    </input>

    <output>
        <tripinfo-output value="traces/transs50f1_s50_f0.5_random/0220_tripinfo.xml"/>
        <collision-output value="traces/transs50f1_s50_f0.5_random/0220_collisions.xml"/>
        <statistic-output value="traces/transs50f1_s50_f0.5_random/0220_statistics.xml"/>
    </output>

    <processing>
        <collision.action value="teleport"/>
        <collision.check-junctions value="true"/>
        <time-to-teleport value="-1"/>
        <waiting-time-memory value="1000"/>
        <max-depart-delay value="-1"/>
        <default.speeddev value="0.1"/>
    </processing>

    <report>
        <no-warnings value="true"/>
    </report>

    <ssm_device>
        <device.ssm.probability value="1.0"/>
        <device.ssm.measures value="BR"/>
        <device.ssm.file value="/Users/finn/Code/CausalKnowledgeTransfer-4-SafeRL/traces/transs50f1_s50_f0.5_random/0220_ssm.xml"/>
    </ssm_device>

    <traci_server>
        <remote-port value="65129"/>
    </traci_server>

    <random_number>
        <random value="true"/>
    </random_number>

</configuration>
-->

<tripinfos xmlns:xsi="http://www.w3.org/2001/XMLSchema-instance" xsi:noNamespaceSchemaLocation="http://sumo.dlr.de/xsd/tripinfo_file.xsd">
    <tripinfo id="westEastTop.0" depart="1.00" departLane="westJunction_1" departPos="5.10" departSpeed="22.22" departDelay="0.27" arrival="48.00" arrivalLane="junctionEast_1" arrivalPos="492.80" arrivalSpeed="21.49" duration="47.00" routeLength="994.90" waitingTime="0.00" waitingCount="0" stopTime="0.00" timeLoss="1.39" rerouteNo="0" devices="tripinfo_westEastTop.0 ssm_westEastTop.0" vType="carCustom" speedFactor="1.04" vaporized=""/>
    <tripinfo id="westEastBottom0.0" depart="2.00" departLane="westJunction_0" departPos="5.10" departSpeed="22.22" departDelay="0.95" arrival="49.00" arrivalLane="junctionEast_0" arrivalPos="492.80" arrivalSpeed="21.43" duration="47.00" routeLength="994.90" waitingTime="0.00" waitingCount="0" stopTime="0.00" timeLoss="1.70" rerouteNo="0" devices="tripinfo_westEastBottom0.0 ssm_westEastBottom0.0" vType="carCustom" speedFactor="0.93" vaporized=""/>
    <tripinfo id="southEast.0" depart="2.00" departLane="southJunction_0" departPos="5.10" departSpeed="22.22" departDelay="0.75" arrival="59.00" arrivalLane="junctionEast_0" arrivalPos="492.80" arrivalSpeed="21.74" duration="57.00" routeLength="989.53" waitingTime="0.00" waitingCount="0" stopTime="0.00" timeLoss="11.34" rerouteNo="0" devices="tripinfo_southEast.0 ssm_southEast.0" vType="carCustom" speedFactor="1.04" vaporized=""/>
    <tripinfo id="westEastTop.1" depart="11.00" departLane="westJunction_1" departPos="5.10" departSpeed="21.39" departDelay="0.23" arrival="62.00" arrivalLane="junctionEast_1" arrivalPos="492.80" arrivalSpeed="21.66" duration="51.00" routeLength="994.90" waitingTime="0.00" waitingCount="0" stopTime="0.00" timeLoss="6.01" rerouteNo="0" devices="tripinfo_westEastTop.1 ssm_westEastTop.1" vType="carCustom" speedFactor="1.07" vaporized=""/>
    <tripinfo id="southEast.1" depart="13.00" departLane="southJunction_0" departPos="5.10" departSpeed="21.19" departDelay="0.37" arrival="74.00" arrivalLane="junctionEast_0" arrivalPos="492.80" arrivalSpeed="21.46" duration="61.00" routeLength="989.53" waitingTime="0.00" waitingCount="0" stopTime="0.00" timeLoss="14.50" rerouteNo="0" devices="tripinfo_southEast.1 ssm_southEast.1" vType="carCustom" speedFactor="1.17" vaporized=""/>
    <tripinfo id="westEastTop.2" depart="15.00" departLane="westJunction_1" departPos="5.10" departSpeed="17.77" departDelay="0.23" arrival="75.00" arrivalLane="junctionEast_1" arrivalPos="492.80" arrivalSpeed="21.44" duration="60.00" routeLength="994.90" waitingTime="0.00" waitingCount="0" stopTime="0.00" timeLoss="14.72" rerouteNo="0" devices="tripinfo_westEastTop.2 ssm_westEastTop.2" vType="carCustom" speedFactor="0.83" vaporized=""/>
    <tripinfo id="southEast.2" depart="18.00" departLane="southJunction_0" departPos="5.10" departSpeed="17.43" departDelay="0.94" arrival="87.00" arrivalLane="junctionEast_0" arrivalPos="492.80" arrivalSpeed="22.12" duration="69.00" routeLength="989.53" waitingTime="0.00" waitingCount="0" stopTime="0.00" timeLoss="22.83" rerouteNo="0" devices="tripinfo_southEast.2 ssm_southEast.2" vType="carCustom" speedFactor="1.04" vaporized=""/>
    <tripinfo id="southNorth.0" depart="15.00" departLane="southJunction_1" departPos="5.10" departSpeed="22.22" departDelay="0.06" arrival="88.00" arrivalLane="junctionNorth_0" arrivalPos="492.80" arrivalSpeed="21.48" duration="73.00" routeLength="995.01" waitingTime="12.00" waitingCount="1" stopTime="0.00" timeLoss="27.66" rerouteNo="0" devices="tripinfo_southNorth.0 ssm_southNorth.0" vType="carCustom" speedFactor="1.09" vaporized=""/>
    <tripinfo id="westEastTop.3" depart="23.00" departLane="westJunction_1" departPos="5.10" departSpeed="11.58" departDelay="0.56" arrival="92.00" arrivalLane="junctionEast_1" arrivalPos="492.80" arrivalSpeed="21.05" duration="69.00" routeLength="994.90" waitingTime="3.00" waitingCount="1" stopTime="0.00" timeLoss="22.87" rerouteNo="0" devices="tripinfo_westEastTop.3 ssm_westEastTop.3" vType="carCustom" speedFactor="1.02" vaporized=""/>
    <tripinfo id="westEastTop.4" depart="25.00" departLane="westJunction_1" departPos="5.10" departSpeed="10.39" departDelay="1.71" arrival="102.00" arrivalLane="junctionEast_1" arrivalPos="492.80" arrivalSpeed="21.83" duration="77.00" routeLength="994.90" waitingTime="0.00" waitingCount="0" stopTime="0.00" timeLoss="32.22" rerouteNo="0" devices="tripinfo_westEastTop.4 ssm_westEastTop.4" vType="carCustom" speedFactor="0.97" vaporized=""/>
    <tripinfo id="southEast.3" depart="42.00" departLane="southJunction_0" departPos="5.10" departSpeed="12.24" departDelay="0.40" arrival="111.00" arrivalLane="junctionEast_1" arrivalPos="492.80" arrivalSpeed="21.22" duration="69.00" routeLength="989.53" waitingTime="0.00" waitingCount="0" stopTime="0.00" timeLoss="22.27" rerouteNo="0" devices="tripinfo_southEast.3 ssm_southEast.3" vType="carCustom" speedFactor="0.90" vaporized=""/>
    <tripinfo id="westEastTop.5" depart="27.00" departLane="westJunction_1" departPos="5.10" departSpeed="7.84" departDelay="1.72" arrival="119.00" arrivalLane="junctionEast_1" arrivalPos="492.80" arrivalSpeed="22.19" duration="92.00" routeLength="994.90" waitingTime="0.00" waitingCount="0" stopTime="0.00" timeLoss="46.95" rerouteNo="0" devices="tripinfo_westEastTop.5 ssm_westEastTop.5" vType="carCustom" speedFactor="1.11" vaporized=""/>
    <tripinfo id="southEast.4" depart="50.00" departLane="southJunction_0" departPos="5.10" departSpeed="16.74" departDelay="0.68" arrival="120.00" arrivalLane="junctionEast_0" arrivalPos="492.80" arrivalSpeed="21.24" duration="70.00" routeLength="989.53" waitingTime="0.00" waitingCount="0" stopTime="0.00" timeLoss="23.93" rerouteNo="0" devices="tripinfo_southEast.4 ssm_southEast.4" vType="carCustom" speedFactor="1.15" vaporized=""/>
    <tripinfo id="southNorth.1" depart="18.00" departLane="southJunction_1" departPos="5.10" departSpeed="21.29" departDelay="0.69" arrival="127.00" arrivalLane="junctionNorth_0" arrivalPos="492.80" arrivalSpeed="22.10" duration="109.00" routeLength="995.01" waitingTime="33.00" waitingCount="1" stopTime="0.00" timeLoss="64.08" rerouteNo="0" devices="tripinfo_southNorth.1 ssm_southNorth.1" vType="carCustom" speedFactor="0.80" vaporized=""/>
    <tripinfo id="westEastTop.6" depart="31.00" departLane="westJunction_1" departPos="5.10" departSpeed="3.47" departDelay="0.60" arrival="128.00" arrivalLane="junctionEast_1" arrivalPos="492.80" arrivalSpeed="21.66" duration="97.00" routeLength="994.90" waitingTime="0.00" waitingCount="0" stopTime="0.00" timeLoss="51.80" rerouteNo="0" devices="tripinfo_westEastTop.6 ssm_westEastTop.6" vType="carCustom" speedFactor="0.77" vaporized=""/>
    <tripinfo id="westEastBottom0.1" depart="68.00" departLane="westJunction_0" departPos="5.10" departSpeed="22.22" departDelay="0.97" arrival="130.00" arrivalLane="junctionEast_0" arrivalPos="492.80" arrivalSpeed="20.99" duration="62.00" routeLength="994.90" waitingTime="0.00" waitingCount="0" stopTime="0.00" timeLoss="16.66" rerouteNo="0" devices="tripinfo_westEastBottom0.1 ssm_westEastBottom0.1" vType="carCustom" speedFactor="0.99" vaporized=""/>
    <tripinfo id="westEastTop.7" depart="35.00" departLane="westJunction_1" departPos="5.10" departSpeed="3.79" departDelay="4.22" arrival="138.00" arrivalLane="junctionEast_1" arrivalPos="492.80" arrivalSpeed="20.99" duration="103.00" routeLength="994.90" waitingTime="2.00" waitingCount="1" stopTime="0.00" timeLoss="57.37" rerouteNo="0" devices="tripinfo_westEastTop.7 ssm_westEastTop.7" vType="carCustom" speedFactor="1.08" vaporized=""/>
    <tripinfo id="southNorth.2" depart="20.00" departLane="southJunction_1" departPos="5.10" departSpeed="18.74" departDelay="0.45" arrival="139.00" arrivalLane="junctionNorth_0" arrivalPos="492.80" arrivalSpeed="21.45" duration="119.00" routeLength="995.01" waitingTime="26.00" waitingCount="2" stopTime="0.00" timeLoss="73.74" rerouteNo="0" devices="tripinfo_southNorth.2 ssm_southNorth.2" vType="carCustom" speedFactor="1.01" vaporized=""/>
    <tripinfo id="southEast.5" depart="60.00" departLane="southJunction_0" departPos="5.10" departSpeed="13.66" departDelay="0.55" arrival="139.00" arrivalLane="junctionEast_0" arrivalPos="492.80" arrivalSpeed="21.71" duration="79.00" routeLength="989.53" waitingTime="0.00" waitingCount="0" stopTime="0.00" timeLoss="33.06" rerouteNo="0" devices="tripinfo_southEast.5 ssm_southEast.5" vType="carCustom" speedFactor="1.19" vaporized=""/>
    <tripinfo id="westEastTop.8" depart="39.00" departLane="westJunction_1" departPos="5.10" departSpeed="2.47" departDelay="7.24" arrival="148.00" arrivalLane="junctionEast_1" arrivalPos="492.80" arrivalSpeed="21.50" duration="109.00" routeLength="994.90" waitingTime="0.00" waitingCount="0" stopTime="0.00" timeLoss="63.42" rerouteNo="0" devices="tripinfo_westEastTop.8 ssm_westEastTop.8" vType="carCustom" speedFactor="1.15" vaporized=""/>
    <tripinfo id="westEastBottom0.2" depart="71.00" departLane="westJunction_0" departPos="5.10" departSpeed="20.30" departDelay="0.66" arrival="149.00" arrivalLane="junctionEast_0" arrivalPos="492.80" arrivalSpeed="22.11" duration="78.00" routeLength="994.90" waitingTime="4.00" waitingCount="1" stopTime="0.00" timeLoss="32.42" rerouteNo="0" devices="tripinfo_westEastBottom0.2 ssm_westEastBottom0.2" vType="carCustom" speedFactor="0.90" vaporized=""/>
    <tripinfo id="southNorth.3" depart="23.00" departLane="southJunction_1" departPos="5.10" departSpeed="14.90" departDelay="0.50" arrival="150.00" arrivalLane="junctionNorth_0" arrivalPos="492.80" arrivalSpeed="21.47" duration="127.00" routeLength="995.01" waitingTime="20.00" waitingCount="3" stopTime="0.00" timeLoss="81.85" rerouteNo="0" devices="tripinfo_southNorth.3 ssm_southNorth.3" vType="carCustom" speedFactor="0.71" vaporized=""/>
    <tripinfo id="westEastTop.9" depart="44.00" departLane="westJunction_1" departPos="5.10" departSpeed="2.88" departDelay="11.80" arrival="157.00" arrivalLane="junctionEast_1" arrivalPos="492.80" arrivalSpeed="21.87" duration="113.00" routeLength="994.90" waitingTime="0.00" waitingCount="0" stopTime="0.00" timeLoss="68.15" rerouteNo="0" devices="tripinfo_westEastTop.9 ssm_westEastTop.9" vType="carCustom" speedFactor="1.04" vaporized=""/>
    <tripinfo id="southEast.6" depart="81.00" departLane="southJunction_0" departPos="5.10" departSpeed="12.72" departDelay="0.41" arrival="158.00" arrivalLane="junctionEast_0" arrivalPos="492.80" arrivalSpeed="21.86" duration="77.00" routeLength="989.53" waitingTime="0.00" waitingCount="0" stopTime="0.00" timeLoss="31.07" rerouteNo="0" devices="tripinfo_southEast.6 ssm_southEast.6" vType="carCustom" speedFactor="0.95" vaporized=""/>
    <tripinfo id="southNorth.4" depart="31.00" departLane="southJunction_1" departPos="5.10" departSpeed="6.57" departDelay="0.91" arrival="162.00" arrivalLane="junctionNorth_0" arrivalPos="492.80" arrivalSpeed="22.13" duration="131.00" routeLength="995.01" waitingTime="17.00" waitingCount="3" stopTime="0.00" timeLoss="85.91" rerouteNo="0" devices="tripinfo_southNorth.4 ssm_southNorth.4" vType="carCustom" speedFactor="1.08" vaporized=""/>
    <tripinfo id="westEastTop.10" depart="49.00" departLane="westJunction_1" departPos="5.10" departSpeed="2.02" departDelay="15.26" arrival="166.00" arrivalLane="junctionEast_1" arrivalPos="492.80" arrivalSpeed="21.51" duration="117.00" routeLength="994.90" waitingTime="0.00" waitingCount="0" stopTime="0.00" timeLoss="72.19" rerouteNo="0" devices="tripinfo_westEastTop.10 ssm_westEastTop.10" vType="carCustom" speedFactor="0.99" vaporized=""/>
    <tripinfo id="westEastBottom0.3" depart="83.00" departLane="westJunction_0" departPos="5.10" departSpeed="12.04" departDelay="0.79" arrival="166.00" arrivalLane="junctionEast_0" arrivalPos="492.80" arrivalSpeed="21.73" duration="83.00" routeLength="994.90" waitingTime="0.00" waitingCount="0" stopTime="0.00" timeLoss="38.08" rerouteNo="0" devices="tripinfo_westEastBottom0.3 ssm_westEastBottom0.3" vType="carCustom" speedFactor="0.97" vaporized=""/>
    <tripinfo id="westEastTop.11" depart="55.00" departLane="westJunction_1" departPos="5.10" departSpeed="2.23" departDelay="16.38" arrival="175.00" arrivalLane="junctionEast_1" arrivalPos="492.80" arrivalSpeed="21.28" duration="120.00" routeLength="994.90" waitingTime="0.00" waitingCount="0" stopTime="0.00" timeLoss="75.23" rerouteNo="0" devices="tripinfo_westEastTop.11 ssm_westEastTop.11" vType="carCustom" speedFactor="0.98" vaporized=""/>
    <tripinfo id="southEast.7" depart="85.00" departLane="southJunction_0" departPos="5.10" departSpeed="16.90" departDelay="0.88" arrival="175.00" arrivalLane="junctionEast_0" arrivalPos="492.80" arrivalSpeed="21.41" duration="90.00" routeLength="989.53" waitingTime="0.00" waitingCount="0" stopTime="0.00" timeLoss="43.32" rerouteNo="0" devices="tripinfo_southEast.7 ssm_southEast.7" vType="carCustom" speedFactor="0.88" vaporized=""/>
    <tripinfo id="southNorth.5" depart="36.00" departLane="southJunction_1" departPos="5.10" departSpeed="8.93" departDelay="0.75" arrival="176.00" arrivalLane="junctionNorth_0" arrivalPos="492.80" arrivalSpeed="21.71" duration="140.00" routeLength="995.01" waitingTime="13.00" waitingCount="2" stopTime="0.00" timeLoss="94.36" rerouteNo="0" devices="tripinfo_southNorth.5 ssm_southNorth.5" vType="carCustom" speedFactor="1.13" vaporized=""/>
    <tripinfo id="westEastBottom0.4" depart="88.00" departLane="westJunction_0" departPos="5.10" departSpeed="13.61" departDelay="0.10" arrival="183.00" arrivalLane="junctionEast_0" arrivalPos="492.80" arrivalSpeed="21.48" duration="95.00" routeLength="994.90" waitingTime="0.00" waitingCount="0" stopTime="0.00" timeLoss="49.83" rerouteNo="0" devices="tripinfo_westEastBottom0.4 ssm_westEastBottom0.4" vType="carCustom" speedFactor="0.80" vaporized=""/>
    <tripinfo id="westEastTop.12" depart="61.00" departLane="westJunction_1" departPos="5.10" departSpeed="2.01" departDelay="19.65" arrival="184.00" arrivalLane="junctionEast_1" arrivalPos="492.80" arrivalSpeed="21.84" duration="123.00" routeLength="994.90" waitingTime="0.00" waitingCount="0" stopTime="0.00" timeLoss="77.95" rerouteNo="0" devices="tripinfo_westEastTop.12 ssm_westEastTop.12" vType="carCustom" speedFactor="0.90" vaporized=""/>
    <tripinfo id="southNorth.6" depart="41.00" departLane="southJunction_1" departPos="5.10" departSpeed="5.84" departDelay="0.07" arrival="189.00" arrivalLane="junctionNorth_0" arrivalPos="492.80" arrivalSpeed="21.33" duration="148.00" routeLength="995.01" waitingTime="16.00" waitingCount="3" stopTime="0.00" timeLoss="102.86" rerouteNo="0" devices="tripinfo_southNorth.6 ssm_southNorth.6" vType="carCustom" speedFactor="0.98" vaporized=""/>
    <tripinfo id="southEast.8" depart="95.00" departLane="southJunction_0" departPos="5.10" departSpeed="11.10" departDelay="0.33" arrival="191.00" arrivalLane="junctionEast_0" arrivalPos="492.80" arrivalSpeed="22.03" duration="96.00" routeLength="989.53" waitingTime="0.00" waitingCount="0" stopTime="0.00" timeLoss="49.78" rerouteNo="0" devices="tripinfo_southEast.8 ssm_southEast.8" vType="carCustom" speedFactor="0.96" vaporized=""/>
    <tripinfo id="westEastBottom0.5" depart="107.00" departLane="westJunction_0" departPos="5.10" departSpeed="10.86" departDelay="0.86" arrival="193.00" arrivalLane="junctionEast_1" arrivalPos="492.80" arrivalSpeed="21.61" duration="86.00" routeLength="994.90" waitingTime="2.00" waitingCount="1" stopTime="0.00" timeLoss="40.50" rerouteNo="0" devices="tripinfo_westEastBottom0.5 ssm_westEastBottom0.5" vType="carCustom" speedFactor="1.12" vaporized=""/>
    <tripinfo id="southEast.9" depart="97.00" departLane="southJunction_0" departPos="5.10" departSpeed="11.34" departDelay="1.05" arrival="199.00" arrivalLane="junctionEast_0" arrivalPos="492.80" arrivalSpeed="21.16" duration="102.00" routeLength="989.53" waitingTime="0.00" waitingCount="0" stopTime="0.00" timeLoss="55.73" rerouteNo="0" devices="tripinfo_southEast.9 ssm_southEast.9" vType="carCustom" speedFactor="1.01" vaporized=""/>
    <tripinfo id="southNorth.7" depart="44.00" departLane="southJunction_1" departPos="5.10" departSpeed="5.48" departDelay="2.66" arrival="201.00" arrivalLane="junctionNorth_0" arrivalPos="492.80" arrivalSpeed="21.82" duration="157.00" routeLength="995.01" waitingTime="13.00" waitingCount="3" stopTime="0.00" timeLoss="111.42" rerouteNo="0" devices="tripinfo_southNorth.7 ssm_southNorth.7" vType="carCustom" speedFactor="0.92" vaporized=""/>
    <tripinfo id="westEastTop.13" depart="66.00" departLane="westJunction_1" departPos="5.10" departSpeed="1.62" departDelay="21.76" arrival="201.00" arrivalLane="junctionEast_1" arrivalPos="492.80" arrivalSpeed="21.03" duration="135.00" routeLength="994.90" waitingTime="0.00" waitingCount="0" stopTime="0.00" timeLoss="90.13" rerouteNo="0" devices="tripinfo_westEastTop.13 ssm_westEastTop.13" vType="carCustom" speedFactor="1.00" vaporized=""/>
    <tripinfo id="southEast.10" depart="118.00" departLane="southJunction_0" departPos="5.10" departSpeed="9.56" departDelay="0.09" arrival="207.00" arrivalLane="junctionEast_0" arrivalPos="492.80" arrivalSpeed="21.04" duration="89.00" routeLength="989.53" waitingTime="0.00" waitingCount="0" stopTime="0.00" timeLoss="43.46" rerouteNo="0" devices="tripinfo_southEast.10 ssm_southEast.10" vType="carCustom" speedFactor="1.27" vaporized=""/>
    <tripinfo id="westEastTop.14" depart="72.00" departLane="westJunction_1" departPos="5.10" departSpeed="2.63" departDelay="27.11" arrival="210.00" arrivalLane="junctionEast_1" arrivalPos="492.80" arrivalSpeed="21.24" duration="138.00" routeLength="994.90" waitingTime="0.00" waitingCount="0" stopTime="0.00" timeLoss="92.31" rerouteNo="0" devices="tripinfo_westEastTop.14 ssm_westEastTop.14" vType="carCustom" speedFactor="0.92" vaporized=""/>
    <tripinfo id="southNorth.8" depart="49.00" departLane="southJunction_1" departPos="5.10" departSpeed="3.89" departDelay="0.42" arrival="212.00" arrivalLane="junctionNorth_0" arrivalPos="492.80" arrivalSpeed="21.66" duration="163.00" routeLength="995.01" waitingTime="10.00" waitingCount="3" stopTime="0.00" timeLoss="117.48" rerouteNo="0" devices="tripinfo_southNorth.8 ssm_southNorth.8" vType="carCustom" speedFactor="0.95" vaporized=""/>
    <tripinfo id="westEastBottom0.6" depart="130.00" departLane="westJunction_0" departPos="5.10" departSpeed="12.38" departDelay="0.41" arrival="215.00" arrivalLane="junctionEast_0" arrivalPos="492.80" arrivalSpeed="21.98" duration="85.00" routeLength="994.90" waitingTime="0.00" waitingCount="0" stopTime="0.00" timeLoss="39.58" rerouteNo="0" devices="tripinfo_westEastBottom0.6 ssm_westEastBottom0.6" vType="carCustom" speedFactor="0.91" vaporized=""/>
    <tripinfo id="westEastTop.15" depart="78.00" departLane="westJunction_1" departPos="5.10" departSpeed="1.70" departDelay="20.09" arrival="218.00" arrivalLane="junctionEast_1" arrivalPos="492.80" arrivalSpeed="22.15" duration="140.00" routeLength="994.90" waitingTime="0.00" waitingCount="0" stopTime="0.00" timeLoss="94.41" rerouteNo="0" devices="tripinfo_westEastTop.15 ssm_westEastTop.15" vType="carCustom" speedFactor="1.04" vaporized=""/>
    <tripinfo id="southEast.11" depart="131.00" departLane="southJunction_0" departPos="5.10" departSpeed="12.19" departDelay="0.70" arrival="223.00" arrivalLane="junctionEast_0" arrivalPos="492.80" arrivalSpeed="21.41" duration="92.00" routeLength="989.53" waitingTime="0.00" waitingCount="0" stopTime="0.00" timeLoss="45.30" rerouteNo="0" devices="tripinfo_southEast.11 ssm_southEast.11" vType="carCustom" speedFactor="0.80" vaporized=""/>
    <tripinfo id="westEastTop.16" depart="84.00" departLane="westJunction_1" departPos="5.10" departSpeed="2.53" departDelay="25.46" arrival="226.00" arrivalLane="junctionEast_1" arrivalPos="492.80" arrivalSpeed="22.13" duration="142.00" routeLength="994.90" waitingTime="1.00" waitingCount="1" stopTime="0.00" timeLoss="96.88" rerouteNo="0" devices="tripinfo_westEastTop.16 ssm_westEastTop.16" vType="carCustom" speedFactor="1.10" vaporized=""/>
    <tripinfo id="southNorth.9" depart="76.00" departLane="southJunction_1" departPos="5.10" departSpeed="5.96" departDelay="0.90" arrival="231.00" arrivalLane="junctionNorth_0" arrivalPos="492.80" arrivalSpeed="21.21" duration="155.00" routeLength="995.01" waitingTime="21.00" waitingCount="4" stopTime="0.00" timeLoss="110.12" rerouteNo="0" devices="tripinfo_southNorth.9 ssm_southNorth.9" vType="carCustom" speedFactor="0.82" vaporized=""/>
    <tripinfo id="southEast.12" depart="133.00" departLane="southJunction_0" departPos="5.10" departSpeed="13.14" departDelay="2.34" arrival="231.00" arrivalLane="junctionEast_0" arrivalPos="492.80" arrivalSpeed="20.99" duration="98.00" routeLength="989.53" waitingTime="0.00" waitingCount="0" stopTime="0.00" timeLoss="51.46" rerouteNo="0" devices="tripinfo_southEast.12 ssm_southEast.12" vType="carCustom" speedFactor="0.99" vaporized=""/>
    <tripinfo id="westEastBottom0.10" depart="184.00" departLane="westJunction_0" departPos="5.10" departSpeed="13.54" departDelay="0.78" arrival="232.00" arrivalLane="junctionEast_0" arrivalPos="492.80" arrivalSpeed="8.52" duration="48.00" routeLength="994.90" waitingTime="0.00" waitingCount="0" stopTime="0.00" timeLoss="25.30" rerouteNo="0" devices="tripinfo_westEastBottom0.10 ssm_westEastBottom0.10" vType="carCustom" speedFactor="1.09" vaporized="teleport"/>
    <tripinfo id="westEastTop.17" depart="90.00" departLane="westJunction_1" departPos="5.10" departSpeed="2.74" departDelay="9.12" arrival="234.00" arrivalLane="junctionEast_1" arrivalPos="492.80" arrivalSpeed="22.22" duration="144.00" routeLength="994.90" waitingTime="0.00" waitingCount="0" stopTime="0.00" timeLoss="98.94" rerouteNo="0" devices="tripinfo_westEastTop.17 ssm_westEastTop.17" vType="carCustom" speedFactor="1.04" vaporized=""/>
    <tripinfo id="westEastBottom0.7" depart="161.00" departLane="westJunction_0" departPos="5.10" departSpeed="7.34" departDelay="0.15" arrival="239.00" arrivalLane="junctionEast_0" arrivalPos="492.80" arrivalSpeed="21.30" duration="78.00" routeLength="994.90" waitingTime="0.00" waitingCount="0" stopTime="0.00" timeLoss="32.34" rerouteNo="0" devices="tripinfo_westEastBottom0.7 ssm_westEastBottom0.7" vType="carCustom" speedFactor="0.96" vaporized=""/>
    <tripinfo id="southNorth.10" depart="81.00" departLane="southJunction_1" departPos="5.10" departSpeed="11.50" departDelay="0.89" arrival="243.00" arrivalLane="junctionNorth_0" arrivalPos="492.80" arrivalSpeed="21.88" duration="162.00" routeLength="995.01" waitingTime="17.00" waitingCount="3" stopTime="0.00" timeLoss="116.91" rerouteNo="0" devices="tripinfo_southNorth.10 ssm_southNorth.10" vType="carCustom" speedFactor="1.04" vaporized=""/>
    <tripinfo id="westEastTop.18" depart="96.00" departLane="westJunction_1" departPos="5.10" departSpeed="1.97" departDelay="11.98" arrival="243.00" arrivalLane="junctionEast_1" arrivalPos="492.80" arrivalSpeed="21.30" duration="147.00" routeLength="994.90" waitingTime="0.00" waitingCount="0" stopTime="0.00" timeLoss="101.35" rerouteNo="0" devices="tripinfo_westEastTop.18 ssm_westEastTop.18" vType="carCustom" speedFactor="0.92" vaporized=""/>
    <tripinfo id="westEastBottom0.8" depart="170.00" departLane="westJunction_0" departPos="5.10" departSpeed="17.22" departDelay="0.46" arrival="247.00" arrivalLane="junctionEast_0" arrivalPos="492.80" arrivalSpeed="22.19" duration="77.00" routeLength="994.90" waitingTime="0.00" waitingCount="0" stopTime="0.00" timeLoss="31.66" rerouteNo="0" devices="tripinfo_westEastBottom0.8 ssm_westEastBottom0.8" vType="carCustom" speedFactor="1.10" vaporized=""/>
    <tripinfo id="westEastTop.19" depart="102.00" departLane="westJunction_1" departPos="5.10" departSpeed="1.94" departDelay="16.53" arrival="251.00" arrivalLane="junctionEast_1" arrivalPos="492.80" arrivalSpeed="22.13" duration="149.00" routeLength="994.90" waitingTime="1.00" waitingCount="1" stopTime="0.00" timeLoss="103.56" rerouteNo="0" devices="tripinfo_westEastTop.19 ssm_westEastTop.19" vType="carCustom" speedFactor="0.99" vaporized=""/>
    <tripinfo id="southNorth.11" depart="88.00" departLane="southJunction_1" departPos="5.10" departSpeed="7.45" departDelay="0.12" arrival="254.00" arrivalLane="junctionNorth_0" arrivalPos="492.80" arrivalSpeed="21.15" duration="166.00" routeLength="995.01" waitingTime="17.00" waitingCount="3" stopTime="0.00" timeLoss="120.88" rerouteNo="0" devices="tripinfo_southNorth.11 ssm_southNorth.11" vType="carCustom" speedFactor="0.94" vaporized=""/>
    <tripinfo id="southEast.13" depart="186.00" departLane="southJunction_0" departPos="5.10" departSpeed="22.22" departDelay="0.11" arrival="255.00" arrivalLane="junctionEast_0" arrivalPos="492.80" arrivalSpeed="22.12" duration="69.00" routeLength="989.53" waitingTime="0.00" waitingCount="0" stopTime="0.00" timeLoss="23.78" rerouteNo="0" devices="tripinfo_southEast.13 ssm_southEast.13" vType="carCustom" speedFactor="1.15" vaporized=""/>
    <tripinfo id="westEastTop.20" depart="108.00" departLane="westJunction_1" departPos="5.10" departSpeed="2.49" departDelay="19.82" arrival="259.00" arrivalLane="junctionEast_1" arrivalPos="492.80" arrivalSpeed="21.45" duration="151.00" routeLength="994.90" waitingTime="2.00" waitingCount="1" stopTime="0.00" timeLoss="106.13" rerouteNo="0" devices="tripinfo_westEastTop.20 ssm_westEastTop.20" vType="carCustom" speedFactor="1.01" vaporized=""/>
    <tripinfo id="westEastBottom0.9" depart="180.00" departLane="westJunction_0" departPos="5.10" departSpeed="13.49" departDelay="0.61" arrival="264.00" arrivalLane="junctionEast_0" arrivalPos="492.80" arrivalSpeed="21.95" duration="84.00" routeLength="994.90" waitingTime="0.00" waitingCount="0" stopTime="0.00" timeLoss="38.66" rerouteNo="0" devices="tripinfo_westEastBottom0.9 ssm_westEastBottom0.9" vType="carCustom" speedFactor="0.93" vaporized=""/>
    <tripinfo id="southNorth.12" depart="91.00" departLane="southJunction_1" departPos="5.10" departSpeed="7.50" departDelay="1.15" arrival="265.00" arrivalLane="junctionNorth_0" arrivalPos="492.80" arrivalSpeed="22.19" duration="174.00" routeLength="995.01" waitingTime="15.00" waitingCount="3" stopTime="0.00" timeLoss="128.32" rerouteNo="0" devices="tripinfo_southNorth.12 ssm_southNorth.12" vType="carCustom" speedFactor="1.09" vaporized=""/>
    <tripinfo id="westEastTop.21" depart="113.00" departLane="westJunction_1" departPos="5.10" departSpeed="1.81" departDelay="24.33" arrival="268.00" arrivalLane="junctionEast_1" arrivalPos="492.80" arrivalSpeed="22.06" duration="155.00" routeLength="994.90" waitingTime="3.00" waitingCount="1" stopTime="0.00" timeLoss="109.48" rerouteNo="0" devices="tripinfo_westEastTop.21 ssm_westEastTop.21" vType="carCustom" speedFactor="0.82" vaporized=""/>
    <tripinfo id="southEast.14" depart="188.00" departLane="southJunction_0" departPos="5.10" departSpeed="20.94" departDelay="0.25" arrival="272.00" arrivalLane="junctionEast_0" arrivalPos="492.80" arrivalSpeed="21.72" duration="84.00" routeLength="989.53" waitingTime="0.00" waitingCount="0" stopTime="0.00" timeLoss="38.30" rerouteNo="0" devices="tripinfo_southEast.14 ssm_southEast.14" vType="carCustom" speedFactor="1.05" vaporized=""/>
    <tripinfo id="southNorth.13" depart="94.00" departLane="southJunction_1" departPos="5.10" departSpeed="4.60" departDelay="2.66" arrival="274.00" arrivalLane="junctionNorth_0" arrivalPos="492.80" arrivalSpeed="21.78" duration="180.00" routeLength="995.01" waitingTime="10.00" waitingCount="1" stopTime="0.00" timeLoss="134.91" rerouteNo="0" devices="tripinfo_southNorth.13 ssm_southNorth.13" vType="carCustom" speedFactor="1.02" vaporized=""/>
    <tripinfo id="westEastTop.22" depart="119.00" departLane="westJunction_1" departPos="5.10" departSpeed="2.37" departDelay="30.14" arrival="276.00" arrivalLane="junctionEast_1" arrivalPos="492.80" arrivalSpeed="21.55" duration="157.00" routeLength="994.90" waitingTime="3.00" waitingCount="1" stopTime="0.00" timeLoss="112.22" rerouteNo="0" devices="tripinfo_westEastTop.22 ssm_westEastTop.22" vType="carCustom" speedFactor="0.92" vaporized=""/>