<?xml version="1.0" encoding="UTF-8"?>

<!-- generated on 2025-04-29 09:49:56 by Eclipse SUMO sumo Version 1.20.0
<configuration xmlns:xsi="http://www.w3.org/2001/XMLSchema-instance" xsi:noNamespaceSchemaLocation="http://sumo.dlr.de/xsd/sumoConfiguration.xsd">

    <input>
        <net-file value="nets/2lane_unprotected_right/2lane_unprotected_right.net.xml"/>
        <route-files value="nets/2lane_unprotected_right/2lane_unprotected_right.rou.xml"/>
    </input>

    <output>
        <tripinfo-output value="traces/transs50f1_s50_f0.5_random/0232_tripinfo.xml"/>
        <collision-output value="traces/transs50f1_s50_f0.5_random/0232_collisions.xml"/>
        <statistic-output value="traces/transs50f1_s50_f0.5_random/0232_statistics.xml"/>
    </output>

    <processing>
        <collision.action value="teleport"/>
        <collision.check-junctions value="true"/>
        <time-to-teleport value="-1"/>
        <waiting-time-memory value="1000"/>
        <max-depart-delay value="-1"/>
        <default.speeddev value="0.1"/>
    </processing>

    <report>
        <no-warnings value="true"/>
    </report>

    <ssm_device>
        <device.ssm.probability value="1.0"/>
        <device.ssm.measures value="BR"/>
        <device.ssm.file value="/Users/finn/Code/CausalKnowledgeTransfer-4-SafeRL/traces/transs50f1_s50_f0.5_random/0232_ssm.xml"/>
    </ssm_device>

    <traci_server>
        <remote-port value="65277"/>
    </traci_server>

    <random_number>
        <random value="true"/>
    </random_number>

</configuration>
-->

<tripinfos xmlns:xsi="http://www.w3.org/2001/XMLSchema-instance" xsi:noNamespaceSchemaLocation="http://sumo.dlr.de/xsd/tripinfo_file.xsd">
    <tripinfo id="westEastTop.0" depart="5.00" departLane="westJunction_1" departPos="5.10" departSpeed="22.22" departDelay="0.26" arrival="52.00" arrivalLane="junctionEast_0" arrivalPos="492.80" arrivalSpeed="21.50" duration="47.00" routeLength="994.90" waitingTime="0.00" waitingCount="0" stopTime="0.00" timeLoss="1.42" rerouteNo="0" devices="tripinfo_westEastTop.0 ssm_westEastTop.0" vType="carCustom" speedFactor="0.98" vaporized=""/>
    <tripinfo id="southEast.0" depart="4.00" departLane="southJunction_0" departPos="5.10" departSpeed="22.22" departDelay="0.21" arrival="57.00" arrivalLane="junctionEast_0" arrivalPos="492.80" arrivalSpeed="21.62" duration="53.00" routeLength="989.53" waitingTime="0.00" waitingCount="0" stopTime="0.00" timeLoss="7.12" rerouteNo="0" devices="tripinfo_southEast.0 ssm_southEast.0" vType="carCustom" speedFactor="1.17" vaporized=""/>
    <tripinfo id="southNorth.0" depart="9.00" departLane="southJunction_1" departPos="5.10" departSpeed="22.22" departDelay="0.15" arrival="59.00" arrivalLane="junctionNorth_0" arrivalPos="492.80" arrivalSpeed="21.68" duration="50.00" routeLength="995.01" waitingTime="0.00" waitingCount="0" stopTime="0.00" timeLoss="5.20" rerouteNo="0" devices="tripinfo_southNorth.0 ssm_southNorth.0" vType="carCustom" speedFactor="1.12" vaporized=""/>
    <tripinfo id="westEastBottom0.0" depart="11.00" departLane="westJunction_0" departPos="5.10" departSpeed="22.22" departDelay="0.76" arrival="59.00" arrivalLane="junctionEast_1" arrivalPos="492.80" arrivalSpeed="21.09" duration="48.00" routeLength="980.50" waitingTime="0.00" waitingCount="0" stopTime="0.00" timeLoss="4.03" rerouteNo="0" devices="tripinfo_westEastBottom0.0 ssm_westEastBottom0.0" vType="carCustom" speedFactor="0.95" vaporized=""/>
    <tripinfo id="southEast.1" depart="6.00" departLane="southJunction_0" departPos="5.10" departSpeed="21.68" departDelay="1.51" arrival="64.00" arrivalLane="junctionEast_0" arrivalPos="492.80" arrivalSpeed="20.93" duration="58.00" routeLength="989.53" waitingTime="0.00" waitingCount="0" stopTime="0.00" timeLoss="12.77" rerouteNo="0" devices="tripinfo_southEast.1 ssm_southEast.1" vType="carCustom" speedFactor="0.87" vaporized=""/>
    <tripinfo id="westEastTop.1" depart="10.00" departLane="westJunction_1" departPos="5.10" departSpeed="21.81" departDelay="0.06" arrival="67.00" arrivalLane="junctionEast_1" arrivalPos="492.80" arrivalSpeed="21.58" duration="57.00" routeLength="994.90" waitingTime="5.00" waitingCount="1" stopTime="0.00" timeLoss="11.06" rerouteNo="0" devices="tripinfo_westEastTop.1 ssm_westEastTop.1" vType="carCustom" speedFactor="0.99" vaporized=""/>
    <tripinfo id="westEastBottom0.1" depart="13.00" departLane="westJunction_0" departPos="5.10" departSpeed="19.67" departDelay="1.57" arrival="69.00" arrivalLane="junctionEast_0" arrivalPos="492.80" arrivalSpeed="21.84" duration="56.00" routeLength="994.90" waitingTime="0.00" waitingCount="0" stopTime="0.00" timeLoss="11.19" rerouteNo="0" devices="tripinfo_westEastBottom0.1 ssm_westEastBottom0.1" vType="carCustom" speedFactor="1.02" vaporized=""/>
    <tripinfo id="westEastTop.2" depart="15.00" departLane="westJunction_1" departPos="5.10" departSpeed="20.90" departDelay="0.80" arrival="72.00" arrivalLane="junctionEast_1" arrivalPos="492.80" arrivalSpeed="21.42" duration="57.00" routeLength="994.90" waitingTime="0.00" waitingCount="0" stopTime="0.00" timeLoss="11.79" rerouteNo="0" devices="tripinfo_westEastTop.2 ssm_westEastTop.2" vType="carCustom" speedFactor="1.15" vaporized=""/>
    <tripinfo id="westEastBottom0.2" depart="15.00" departLane="westJunction_0" departPos="5.10" departSpeed="14.97" departDelay="0.23" arrival="75.00" arrivalLane="junctionEast_0" arrivalPos="492.80" arrivalSpeed="21.25" duration="60.00" routeLength="994.90" waitingTime="0.00" waitingCount="0" stopTime="0.00" timeLoss="14.29" rerouteNo="0" devices="tripinfo_westEastBottom0.2 ssm_westEastBottom0.2" vType="carCustom" speedFactor="0.99" vaporized=""/>
    <tripinfo id="southNorth.1" depart="11.00" departLane="southJunction_1" departPos="5.10" departSpeed="21.68" departDelay="0.23" arrival="76.00" arrivalLane="junctionNorth_0" arrivalPos="492.80" arrivalSpeed="22.18" duration="65.00" routeLength="995.01" waitingTime="5.00" waitingCount="1" stopTime="0.00" timeLoss="20.00" rerouteNo="0" devices="tripinfo_southNorth.1 ssm_southNorth.1" vType="carCustom" speedFactor="1.14" vaporized=""/>
    <tripinfo id="westEastTop.3" depart="17.00" departLane="westJunction_1" departPos="5.10" departSpeed="19.12" departDelay="0.56" arrival="81.00" arrivalLane="junctionEast_0" arrivalPos="492.80" arrivalSpeed="20.96" duration="64.00" routeLength="994.90" waitingTime="2.00" waitingCount="1" stopTime="0.00" timeLoss="18.65" rerouteNo="0" devices="tripinfo_westEastTop.3 ssm_westEastTop.3" vType="carCustom" speedFactor="0.96" vaporized=""/>
    <tripinfo id="southNorth.2" depart="19.00" departLane="southJunction_1" departPos="5.10" departSpeed="17.83" departDelay="0.70" arrival="81.00" arrivalLane="junctionNorth_0" arrivalPos="492.80" arrivalSpeed="21.84" duration="62.00" routeLength="995.01" waitingTime="0.00" waitingCount="0" stopTime="0.00" timeLoss="17.04" rerouteNo="0" devices="tripinfo_southNorth.2 ssm_southNorth.2" vType="carCustom" speedFactor="1.06" vaporized=""/>
    <tripinfo id="southNorth.3" depart="21.00" departLane="southJunction_1" departPos="5.10" departSpeed="20.60" departDelay="2.52" arrival="87.00" arrivalLane="junctionNorth_0" arrivalPos="492.80" arrivalSpeed="22.15" duration="66.00" routeLength="995.01" waitingTime="1.00" waitingCount="1" stopTime="0.00" timeLoss="20.56" rerouteNo="0" devices="tripinfo_southNorth.3 ssm_southNorth.3" vType="carCustom" speedFactor="0.92" vaporized=""/>
    <tripinfo id="westEastTop.4" depart="24.00" departLane="westJunction_1" departPos="5.10" departSpeed="16.28" departDelay="0.48" arrival="91.00" arrivalLane="junctionEast_0" arrivalPos="492.80" arrivalSpeed="21.63" duration="67.00" routeLength="994.90" waitingTime="4.00" waitingCount="1" stopTime="0.00" timeLoss="21.93" rerouteNo="0" devices="tripinfo_westEastTop.4 ssm_westEastTop.4" vType="carCustom" speedFactor="0.83" vaporized=""/>
    <tripinfo id="westEastTop.5" depart="30.00" departLane="westJunction_1" departPos="5.10" departSpeed="19.07" departDelay="0.50" arrival="95.00" arrivalLane="junctionEast_0" arrivalPos="492.80" arrivalSpeed="22.10" duration="65.00" routeLength="994.90" waitingTime="0.00" waitingCount="0" stopTime="0.00" timeLoss="19.90" rerouteNo="0" devices="tripinfo_westEastTop.5 ssm_westEastTop.5" vType="carCustom" speedFactor="0.97" vaporized=""/>
    <tripinfo id="southNorth.4" depart="24.00" departLane="southJunction_1" departPos="5.10" departSpeed="14.29" departDelay="0.42" arrival="96.00" arrivalLane="junctionNorth_0" arrivalPos="492.80" arrivalSpeed="21.10" duration="72.00" routeLength="995.01" waitingTime="4.00" waitingCount="1" stopTime="0.00" timeLoss="26.97" rerouteNo="0" devices="tripinfo_southNorth.4 ssm_southNorth.4" vType="carCustom" speedFactor="1.05" vaporized=""/>
    <tripinfo id="westEastTop.6" depart="32.00" departLane="westJunction_1" departPos="5.10" departSpeed="20.22" departDelay="0.42" arrival="101.00" arrivalLane="junctionEast_0" arrivalPos="492.80" arrivalSpeed="21.56" duration="69.00" routeLength="994.90" waitingTime="2.00" waitingCount="1" stopTime="0.00" timeLoss="23.54" rerouteNo="0" devices="tripinfo_westEastTop.6 ssm_westEastTop.6" vType="carCustom" speedFactor="0.97" vaporized=""/>
    <tripinfo id="westEastBottom0.4" depart="38.00" departLane="westJunction_0" departPos="5.10" departSpeed="18.21" departDelay="1.49" arrival="102.00" arrivalLane="junctionEast_0" arrivalPos="492.80" arrivalSpeed="20.04" duration="64.00" routeLength="994.90" waitingTime="5.00" waitingCount="1" stopTime="0.00" timeLoss="18.05" rerouteNo="0" devices="tripinfo_westEastBottom0.4 ssm_westEastBottom0.4" vType="carCustom" speedFactor="0.80" vaporized=""/>
    <tripinfo id="westEastBottom0.3" depart="36.00" departLane="westJunction_0" departPos="5.10" departSpeed="18.05" departDelay="0.55" arrival="106.00" arrivalLane="junctionEast_0" arrivalPos="492.80" arrivalSpeed="21.58" duration="70.00" routeLength="994.90" waitingTime="0.00" waitingCount="0" stopTime="0.00" timeLoss="24.60" rerouteNo="0" devices="tripinfo_westEastBottom0.3 ssm_westEastBottom0.3" vType="carCustom" speedFactor="1.06" vaporized=""/>
    <tripinfo id="westEastBottom0.5" depart="44.00" departLane="westJunction_0" departPos="5.10" departSpeed="16.97" departDelay="0.01" arrival="109.00" arrivalLane="junctionEast_0" arrivalPos="492.80" arrivalSpeed="19.01" duration="65.00" routeLength="994.90" waitingTime="0.00" waitingCount="0" stopTime="0.00" timeLoss="19.48" rerouteNo="0" devices="tripinfo_westEastBottom0.5 ssm_westEastBottom0.5" vType="carCustom" speedFactor="1.01" vaporized=""/>
    <tripinfo id="westEastTop.7" depart="34.00" departLane="westJunction_1" departPos="5.10" departSpeed="14.75" departDelay="0.02" arrival="110.00" arrivalLane="junctionEast_1" arrivalPos="492.80" arrivalSpeed="21.30" duration="76.00" routeLength="994.90" waitingTime="0.00" waitingCount="0" stopTime="0.00" timeLoss="31.17" rerouteNo="0" devices="tripinfo_westEastTop.7 ssm_westEastTop.7" vType="carCustom" speedFactor="0.99" vaporized=""/>
    <tripinfo id="southEast.2" depart="48.00" departLane="southJunction_0" departPos="5.10" departSpeed="22.22" departDelay="0.51" arrival="113.00" arrivalLane="junctionEast_0" arrivalPos="492.80" arrivalSpeed="21.64" duration="65.00" routeLength="989.53" waitingTime="3.00" waitingCount="1" stopTime="0.00" timeLoss="19.24" rerouteNo="0" devices="tripinfo_southEast.2 ssm_southEast.2" vType="carCustom" speedFactor="1.01" vaporized=""/>
    <tripinfo id="westEastTop.8" depart="38.00" departLane="westJunction_1" departPos="5.10" departSpeed="11.78" departDelay="0.11" arrival="115.00" arrivalLane="junctionEast_1" arrivalPos="492.80" arrivalSpeed="20.96" duration="77.00" routeLength="994.90" waitingTime="0.00" waitingCount="0" stopTime="0.00" timeLoss="31.84" rerouteNo="0" devices="tripinfo_westEastTop.8 ssm_westEastTop.8" vType="carCustom" speedFactor="0.79" vaporized=""/>
    <tripinfo id="westEastBottom0.6" depart="48.00" departLane="westJunction_0" departPos="5.10" departSpeed="16.15" departDelay="0.26" arrival="117.00" arrivalLane="junctionEast_0" arrivalPos="492.80" arrivalSpeed="21.32" duration="69.00" routeLength="994.90" waitingTime="0.00" waitingCount="0" stopTime="0.00" timeLoss="23.92" rerouteNo="0" devices="tripinfo_westEastBottom0.6 ssm_westEastBottom0.6" vType="carCustom" speedFactor="1.05" vaporized=""/>
    <tripinfo id="westEastTop.9" depart="41.00" departLane="westJunction_1" departPos="5.10" departSpeed="11.52" departDelay="0.95" arrival="120.00" arrivalLane="junctionEast_1" arrivalPos="492.80" arrivalSpeed="21.32" duration="79.00" routeLength="994.90" waitingTime="0.00" waitingCount="0" stopTime="0.00" timeLoss="33.39" rerouteNo="0" devices="tripinfo_westEastTop.9 ssm_westEastTop.9" vType="carCustom" speedFactor="1.02" vaporized=""/>
    <tripinfo id="westEastBottom0.7" depart="50.00" departLane="westJunction_0" departPos="5.10" departSpeed="15.52" departDelay="0.31" arrival="121.00" arrivalLane="junctionEast_0" arrivalPos="492.80" arrivalSpeed="21.51" duration="71.00" routeLength="994.90" waitingTime="0.00" waitingCount="0" stopTime="0.00" timeLoss="26.16" rerouteNo="0" devices="tripinfo_westEastBottom0.7 ssm_westEastBottom0.7" vType="carCustom" speedFactor="0.89" vaporized=""/>
    <tripinfo id="westEastTop.10" depart="43.00" departLane="westJunction_1" departPos="5.10" departSpeed="10.76" departDelay="0.53" arrival="124.00" arrivalLane="junctionEast_1" arrivalPos="492.80" arrivalSpeed="21.12" duration="81.00" routeLength="994.90" waitingTime="0.00" waitingCount="0" stopTime="0.00" timeLoss="35.96" rerouteNo="0" devices="tripinfo_westEastTop.10 ssm_westEastTop.10" vType="carCustom" speedFactor="0.90" vaporized=""/>
    <tripinfo id="westEastBottom0.8" depart="59.00" departLane="westJunction_0" departPos="5.10" departSpeed="13.15" departDelay="0.60" arrival="126.00" arrivalLane="junctionEast_0" arrivalPos="492.80" arrivalSpeed="21.83" duration="67.00" routeLength="994.90" waitingTime="0.00" waitingCount="0" stopTime="0.00" timeLoss="21.38" rerouteNo="0" devices="tripinfo_westEastBottom0.8 ssm_westEastBottom0.8" vType="carCustom" speedFactor="0.99" vaporized=""/>
    <tripinfo id="westEastTop.11" depart="45.00" departLane="westJunction_1" departPos="5.10" departSpeed="7.34" departDelay="1.11" arrival="129.00" arrivalLane="junctionEast_1" arrivalPos="492.80" arrivalSpeed="21.37" duration="84.00" routeLength="994.90" waitingTime="0.00" waitingCount="0" stopTime="0.00" timeLoss="38.48" rerouteNo="0" devices="tripinfo_westEastTop.11 ssm_westEastTop.11" vType="carCustom" speedFactor="0.91" vaporized=""/>
    <tripinfo id="southEast.3" depart="52.00" departLane="southJunction_0" departPos="5.10" departSpeed="21.30" departDelay="0.56" arrival="130.00" arrivalLane="junctionEast_0" arrivalPos="492.80" arrivalSpeed="22.06" duration="78.00" routeLength="989.53" waitingTime="9.00" waitingCount="1" stopTime="0.00" timeLoss="32.18" rerouteNo="0" devices="tripinfo_southEast.3 ssm_southEast.3" vType="carCustom" speedFactor="0.97" vaporized=""/>
    <tripinfo id="westEastTop.12" depart="49.00" departLane="westJunction_1" departPos="5.10" departSpeed="6.72" departDelay="0.72" arrival="133.00" arrivalLane="junctionEast_1" arrivalPos="492.80" arrivalSpeed="21.28" duration="84.00" routeLength="994.90" waitingTime="0.00" waitingCount="0" stopTime="0.00" timeLoss="38.97" rerouteNo="0" devices="tripinfo_westEastTop.12 ssm_westEastTop.12" vType="carCustom" speedFactor="0.99" vaporized=""/>
    <tripinfo id="westEastTop.13" depart="53.00" departLane="westJunction_1" departPos="5.10" departSpeed="7.18" departDelay="0.42" arrival="138.00" arrivalLane="junctionEast_1" arrivalPos="492.80" arrivalSpeed="22.04" duration="85.00" routeLength="994.90" waitingTime="0.00" waitingCount="0" stopTime="0.00" timeLoss="39.26" rerouteNo="0" devices="tripinfo_westEastTop.13 ssm_westEastTop.13" vType="carCustom" speedFactor="1.15" vaporized=""/>
    <tripinfo id="westEastBottom0.9" depart="81.00" departLane="westJunction_0" departPos="5.10" departSpeed="15.13" departDelay="0.66" arrival="141.00" arrivalLane="junctionEast_0" arrivalPos="492.80" arrivalSpeed="22.11" duration="60.00" routeLength="994.90" waitingTime="0.00" waitingCount="0" stopTime="0.00" timeLoss="15.09" rerouteNo="0" devices="tripinfo_westEastBottom0.9 ssm_westEastBottom0.9" vType="carCustom" speedFactor="0.88" vaporized=""/>
    <tripinfo id="southEast.9" depart="108.00" departLane="southJunction_0" departPos="5.10" departSpeed="20.93" departDelay="0.35" arrival="144.00" arrivalLane="junctionEast_0" arrivalPos="492.80" arrivalSpeed="5.89" duration="36.00" routeLength="989.53" waitingTime="2.00" waitingCount="1" stopTime="0.00" timeLoss="12.88" rerouteNo="0" devices="tripinfo_southEast.9 ssm_southEast.9" vType="carCustom" speedFactor="1.10" vaporized="teleport"/>
    <tripinfo id="westEastTop.15" depart="58.00" departLane="westJunction_1" departPos="5.10" departSpeed="5.29" departDelay="4.50" arrival="145.00" arrivalLane="junctionEast_1" arrivalPos="492.80" arrivalSpeed="21.32" duration="87.00" routeLength="994.90" waitingTime="0.00" waitingCount="0" stopTime="0.00" timeLoss="42.21" rerouteNo="0" devices="tripinfo_westEastTop.15 ssm_westEastTop.15" vType="carCustom" speedFactor="1.08" vaporized=""/>
    <tripinfo id="southEast.4" depart="61.00" departLane="southJunction_0" departPos="5.10" departSpeed="20.06" departDelay="0.76" arrival="145.00" arrivalLane="junctionEast_0" arrivalPos="492.80" arrivalSpeed="22.18" duration="84.00" routeLength="989.53" waitingTime="16.00" waitingCount="2" stopTime="0.00" timeLoss="38.01" rerouteNo="0" devices="tripinfo_southEast.4 ssm_southEast.4" vType="carCustom" speedFactor="1.07" vaporized=""/>
    <tripinfo id="westEastTop.14" depart="55.00" departLane="westJunction_1" departPos="5.10" departSpeed="6.44" departDelay="1.64" arrival="149.00" arrivalLane="junctionEast_0" arrivalPos="492.80" arrivalSpeed="21.11" duration="94.00" routeLength="994.90" waitingTime="0.00" waitingCount="0" stopTime="0.00" timeLoss="48.44" rerouteNo="0" devices="tripinfo_westEastTop.14 ssm_westEastTop.14" vType="carCustom" speedFactor="1.08" vaporized=""/>
    <tripinfo id="westEastTop.16" depart="61.00" departLane="westJunction_1" departPos="5.10" departSpeed="4.90" departDelay="6.65" arrival="150.00" arrivalLane="junctionEast_1" arrivalPos="492.80" arrivalSpeed="21.00" duration="89.00" routeLength="994.90" waitingTime="0.00" waitingCount="0" stopTime="0.00" timeLoss="43.76" rerouteNo="0" devices="tripinfo_westEastTop.16 ssm_westEastTop.16" vType="carCustom" speedFactor="0.86" vaporized=""/>
    <tripinfo id="southEast.5" depart="80.00" departLane="southJunction_0" departPos="5.10" departSpeed="15.34" departDelay="0.96" arrival="152.00" arrivalLane="junctionEast_0" arrivalPos="492.80" arrivalSpeed="21.56" duration="72.00" routeLength="989.53" waitingTime="1.00" waitingCount="1" stopTime="0.00" timeLoss="26.57" rerouteNo="0" devices="tripinfo_southEast.5 ssm_southEast.5" vType="carCustom" speedFactor="1.20" vaporized=""/>
    <tripinfo id="westEastTop.17" depart="65.00" departLane="westJunction_1" departPos="5.10" departSpeed="5.46" departDelay="5.71" arrival="155.00" arrivalLane="junctionEast_1" arrivalPos="492.80" arrivalSpeed="21.03" duration="90.00" routeLength="994.90" waitingTime="0.00" waitingCount="0" stopTime="0.00" timeLoss="44.30" rerouteNo="0" devices="tripinfo_westEastTop.17 ssm_westEastTop.17" vType="carCustom" speedFactor="0.93" vaporized=""/>
    <tripinfo id="westEastBottom0.10" depart="84.00" departLane="westJunction_0" departPos="5.10" departSpeed="17.10" departDelay="0.14" arrival="156.00" arrivalLane="junctionEast_0" arrivalPos="492.80" arrivalSpeed="21.90" duration="72.00" routeLength="994.90" waitingTime="0.00" waitingCount="0" stopTime="0.00" timeLoss="26.90" rerouteNo="0" devices="tripinfo_westEastBottom0.10 ssm_westEastBottom0.10" vType="carCustom" speedFactor="0.83" vaporized=""/>
    <tripinfo id="westEastTop.18" depart="68.00" departLane="westJunction_1" departPos="5.10" departSpeed="5.35" departDelay="4.90" arrival="159.00" arrivalLane="junctionEast_1" arrivalPos="492.80" arrivalSpeed="22.13" duration="91.00" routeLength="994.90" waitingTime="0.00" waitingCount="0" stopTime="0.00" timeLoss="45.65" rerouteNo="0" devices="tripinfo_westEastTop.18 ssm_westEastTop.18" vType="carCustom" speedFactor="1.11" vaporized=""/>
    <tripinfo id="southEast.6" depart="85.00" departLane="southJunction_0" departPos="5.10" departSpeed="22.01" departDelay="0.04" arrival="160.00" arrivalLane="junctionEast_0" arrivalPos="492.80" arrivalSpeed="21.23" duration="75.00" routeLength="989.53" waitingTime="1.00" waitingCount="1" stopTime="0.00" timeLoss="29.52" rerouteNo="0" devices="tripinfo_southEast.6 ssm_southEast.6" vType="carCustom" speedFactor="1.14" vaporized=""/>
    <tripinfo id="westEastTop.19" depart="71.00" departLane="westJunction_1" departPos="5.10" departSpeed="5.87" departDelay="4.96" arrival="163.00" arrivalLane="junctionEast_1" arrivalPos="492.80" arrivalSpeed="21.32" duration="92.00" routeLength="994.90" waitingTime="0.00" waitingCount="0" stopTime="0.00" timeLoss="46.93" rerouteNo="0" devices="tripinfo_westEastTop.19 ssm_westEastTop.19" vType="carCustom" speedFactor="1.05" vaporized=""/>
    <tripinfo id="southEast.7" depart="93.00" departLane="southJunction_0" departPos="5.10" departSpeed="19.59" departDelay="0.53" arrival="164.00" arrivalLane="junctionEast_0" arrivalPos="492.80" arrivalSpeed="21.92" duration="71.00" routeLength="989.53" waitingTime="5.00" waitingCount="1" stopTime="0.00" timeLoss="25.65" rerouteNo="0" devices="tripinfo_southEast.7 ssm_southEast.7" vType="carCustom" speedFactor="1.07" vaporized=""/>
    <tripinfo id="westEastTop.20" depart="74.00" departLane="westJunction_1" departPos="5.10" departSpeed="4.04" departDelay="2.22" arrival="167.00" arrivalLane="junctionEast_1" arrivalPos="492.80" arrivalSpeed="21.00" duration="93.00" routeLength="994.90" waitingTime="0.00" waitingCount="0" stopTime="0.00" timeLoss="48.08" rerouteNo="0" devices="tripinfo_westEastTop.20 ssm_westEastTop.20" vType="carCustom" speedFactor="1.03" vaporized=""/>
    <tripinfo id="southEast.8" depart="102.00" departLane="southJunction_0" departPos="5.10" departSpeed="21.61" departDelay="0.79" arrival="169.00" arrivalLane="junctionEast_0" arrivalPos="492.80" arrivalSpeed="21.78" duration="67.00" routeLength="989.53" waitingTime="0.00" waitingCount="0" stopTime="0.00" timeLoss="20.96" rerouteNo="0" devices="tripinfo_southEast.8 ssm_southEast.8" vType="carCustom" speedFactor="0.97" vaporized=""/>
    <tripinfo id="westEastTop.21" depart="78.00" departLane="westJunction_1" departPos="5.10" departSpeed="4.82" departDelay="1.93" arrival="172.00" arrivalLane="junctionEast_1" arrivalPos="492.80" arrivalSpeed="20.97" duration="94.00" routeLength="994.90" waitingTime="0.00" waitingCount="0" stopTime="0.00" timeLoss="48.36" rerouteNo="0" devices="tripinfo_westEastTop.21 ssm_westEastTop.21" vType="carCustom" speedFactor="1.08" vaporized=""/>
    <tripinfo id="westEastBottom0.11" depart="106.00" departLane="westJunction_0" departPos="5.10" departSpeed="15.22" departDelay="0.13" arrival="173.00" arrivalLane="junctionEast_0" arrivalPos="492.80" arrivalSpeed="21.79" duration="67.00" routeLength="994.90" waitingTime="0.00" waitingCount="0" stopTime="0.00" timeLoss="21.61" rerouteNo="0" devices="tripinfo_westEastBottom0.11 ssm_westEastBottom0.11" vType="carCustom" speedFactor="0.97" vaporized=""/>
    <tripinfo id="westEastTop.22" depart="82.00" departLane="westJunction_1" departPos="5.10" departSpeed="5.52" departDelay="3.03" arrival="176.00" arrivalLane="junctionEast_1" arrivalPos="492.80" arrivalSpeed="21.37" duration="94.00" routeLength="994.90" waitingTime="0.00" waitingCount="0" stopTime="0.00" timeLoss="48.65" rerouteNo="0" devices="tripinfo_westEastTop.22 ssm_westEastTop.22" vType="carCustom" speedFactor="0.76" vaporized=""/>
    <tripinfo id="westEastBottom0.12" depart="111.00" departLane="westJunction_0" departPos="5.10" departSpeed="19.09" departDelay="0.61" arrival="177.00" arrivalLane="junctionEast_0" arrivalPos="492.80" arrivalSpeed="22.13" duration="66.00" routeLength="994.90" waitingTime="0.00" waitingCount="0" stopTime="0.00" timeLoss="20.89" rerouteNo="0" devices="tripinfo_westEastBottom0.12 ssm_westEastBottom0.12" vType="carCustom" speedFactor="1.16" vaporized=""/>
    <tripinfo id="westEastTop.23" depart="85.00" departLane="westJunction_1" departPos="5.10" departSpeed="4.24" departDelay="1.24" arrival="180.00" arrivalLane="junctionEast_1" arrivalPos="492.80" arrivalSpeed="21.11" duration="95.00" routeLength="994.90" waitingTime="0.00" waitingCount="0" stopTime="0.00" timeLoss="49.93" rerouteNo="0" devices="tripinfo_westEastTop.23 ssm_westEastTop.23" vType="carCustom" speedFactor="0.84" vaporized=""/>
    <tripinfo id="southEast.10" depart="110.00" departLane="southJunction_0" departPos="5.10" departSpeed="21.74" departDelay="0.77" arrival="181.00" arrivalLane="junctionEast_0" arrivalPos="492.80" arrivalSpeed="21.93" duration="71.00" routeLength="989.53" waitingTime="0.00" waitingCount="0" stopTime="0.00" timeLoss="25.81" rerouteNo="0" devices="tripinfo_southEast.10 ssm_southEast.10" vType="carCustom" speedFactor="1.24" vaporized=""/>
    <tripinfo id="westEastTop.24" depart="88.00" departLane="westJunction_1" departPos="5.10" departSpeed="4.91" departDelay="3.87" arrival="184.00" arrivalLane="junctionEast_1" arrivalPos="492.80" arrivalSpeed="21.40" duration="96.00" routeLength="994.90" waitingTime="0.00" waitingCount="0" stopTime="0.00" timeLoss="51.05" rerouteNo="0" devices="tripinfo_westEastTop.24 ssm_westEastTop.24" vType="carCustom" speedFactor="0.99" vaporized=""/>
    <tripinfo id="southEast.11" depart="112.00" departLane="southJunction_0" departPos="5.10" departSpeed="16.35" departDelay="2.17" arrival="186.00" arrivalLane="junctionEast_0" arrivalPos="492.80" arrivalSpeed="21.19" duration="74.00" routeLength="989.53" waitingTime="0.00" waitingCount="0" stopTime="0.00" timeLoss="27.99" rerouteNo="0" devices="tripinfo_southEast.11 ssm_southEast.11" vType="carCustom" speedFactor="0.98" vaporized=""/>
    <tripinfo id="westEastTop.25" depart="98.00" departLane="westJunction_1" departPos="5.10" departSpeed="5.62" departDelay="0.57" arrival="188.00" arrivalLane="junctionEast_1" arrivalPos="492.80" arrivalSpeed="21.09" duration="90.00" routeLength="994.90" waitingTime="0.00" waitingCount="0" stopTime="0.00" timeLoss="45.12" rerouteNo="0" devices="tripinfo_westEastTop.25 ssm_westEastTop.25" vType="carCustom" speedFactor="0.90" vaporized=""/>
    <tripinfo id="southNorth.5" depart="87.00" departLane="southJunction_1" departPos="5.10" departSpeed="22.22" departDelay="0.76" arrival="189.00" arrivalLane="junctionNorth_0" arrivalPos="492.80" arrivalSpeed="21.63" duration="102.00" routeLength="995.01" waitingTime="47.00" waitingCount="1" stopTime="0.00" timeLoss="56.74" rerouteNo="0" devices="tripinfo_southNorth.5 ssm_southNorth.5" vType="carCustom" speedFactor="0.90" vaporized=""/>
    <tripinfo id="westEastBottom0.13" depart="130.00" departLane="westJunction_0" departPos="5.10" departSpeed="15.17" departDelay="0.99" arrival="190.00" arrivalLane="junctionEast_0" arrivalPos="492.80" arrivalSpeed="22.02" duration="60.00" routeLength="994.90" waitingTime="0.00" waitingCount="0" stopTime="0.00" timeLoss="14.87" rerouteNo="0" devices="tripinfo_westEastBottom0.13 ssm_westEastBottom0.13" vType="carCustom" speedFactor="0.97" vaporized=""/>
    <tripinfo id="westEastTop.26" depart="103.00" departLane="westJunction_1" departPos="5.10" departSpeed="9.30" departDelay="0.15" arrival="193.00" arrivalLane="junctionEast_1" arrivalPos="492.80" arrivalSpeed="20.95" duration="90.00" routeLength="994.90" waitingTime="0.00" waitingCount="0" stopTime="0.00" timeLoss="44.29" rerouteNo="0" devices="tripinfo_westEastTop.26 ssm_westEastTop.26" vType="carCustom" speedFactor="1.12" vaporized=""/>
    <tripinfo id="southNorth.6" depart="110.00" departLane="southJunction_1" departPos="5.10" departSpeed="11.04" departDelay="0.22" arrival="194.00" arrivalLane="junctionNorth_0" arrivalPos="492.80" arrivalSpeed="21.71" duration="84.00" routeLength="995.01" waitingTime="21.00" waitingCount="1" stopTime="0.00" timeLoss="38.82" rerouteNo="0" devices="tripinfo_southNorth.6 ssm_southNorth.6" vType="carCustom" speedFactor="1.17" vaporized=""/>
    <tripinfo id="southEast.12" depart="134.00" departLane="southJunction_0" departPos="5.10" departSpeed="14.47" departDelay="0.95" arrival="197.00" arrivalLane="junctionEast_1" arrivalPos="492.80" arrivalSpeed="21.80" duration="63.00" routeLength="989.53" waitingTime="0.00" waitingCount="0" stopTime="0.00" timeLoss="16.32" rerouteNo="0" devices="tripinfo_southEast.12 ssm_southEast.12" vType="carCustom" speedFactor="0.99" vaporized=""/>
    <tripinfo id="westEastTop.27" depart="105.00" departLane="westJunction_1" departPos="5.10" departSpeed="9.82" departDelay="1.68" arrival="200.00" arrivalLane="junctionEast_0" arrivalPos="492.80" arrivalSpeed="21.60" duration="95.00" routeLength="994.90" waitingTime="0.00" waitingCount="0" stopTime="0.00" timeLoss="49.79" rerouteNo="0" devices="tripinfo_westEastTop.27 ssm_westEastTop.27" vType="carCustom" speedFactor="0.98" vaporized=""/>
    <tripinfo id="southNorth.7" depart="112.00" departLane="southJunction_1" departPos="5.10" departSpeed="15.63" departDelay="0.77" arrival="200.00" arrivalLane="junctionNorth_0" arrivalPos="492.80" arrivalSpeed="20.93" duration="88.00" routeLength="995.01" waitingTime="17.00" waitingCount="2" stopTime="0.00" timeLoss="42.42" rerouteNo="0" devices="tripinfo_southNorth.7 ssm_southNorth.7" vType="carCustom" speedFactor="1.08" vaporized=""/>