<?xml version="1.0" encoding="UTF-8"?>

<!-- generated on 2025-04-29 09:55:37 by Eclipse SUMO sumo Version 1.20.0
<configuration xmlns:xsi="http://www.w3.org/2001/XMLSchema-instance" xsi:noNamespaceSchemaLocation="http://sumo.dlr.de/xsd/sumoConfiguration.xsd">

    <input>
        <net-file value="nets/2lane_unprotected_right/2lane_unprotected_right.net.xml"/>
        <route-files value="nets/2lane_unprotected_right/2lane_unprotected_right.rou.xml"/>
    </input>

    <output>
        <tripinfo-output value="traces/transs50f1_s50_f0.5_random/0236_tripinfo.xml"/>
        <collision-output value="traces/transs50f1_s50_f0.5_random/0236_collisions.xml"/>
        <statistic-output value="traces/transs50f1_s50_f0.5_random/0236_statistics.xml"/>
    </output>

    <processing>
        <collision.action value="teleport"/>
        <collision.check-junctions value="true"/>
        <time-to-teleport value="-1"/>
        <waiting-time-memory value="1000"/>
        <max-depart-delay value="-1"/>
        <default.speeddev value="0.1"/>
    </processing>

    <report>
        <no-warnings value="true"/>
    </report>

    <ssm_device>
        <device.ssm.probability value="1.0"/>
        <device.ssm.measures value="BR"/>
        <device.ssm.file value="/Users/finn/Code/CausalKnowledgeTransfer-4-SafeRL/traces/transs50f1_s50_f0.5_random/0236_ssm.xml"/>
    </ssm_device>

    <traci_server>
        <remote-port value="65328"/>
    </traci_server>

    <random_number>
        <random value="true"/>
    </random_number>

</configuration>
-->

<tripinfos xmlns:xsi="http://www.w3.org/2001/XMLSchema-instance" xsi:noNamespaceSchemaLocation="http://sumo.dlr.de/xsd/tripinfo_file.xsd">
    <tripinfo id="westEastTop.0" depart="2.00" departLane="westJunction_1" departPos="5.10" departSpeed="13.89" departDelay="0.15" arrival="78.00" arrivalLane="junctionEast_1" arrivalPos="492.80" arrivalSpeed="13.54" duration="76.00" routeLength="994.90" waitingTime="0.00" waitingCount="0" stopTime="0.00" timeLoss="3.62" rerouteNo="0" devices="tripinfo_westEastTop.0 ssm_westEastTop.0" vType="carCustom" speedFactor="1.05" vaporized=""/>
    <tripinfo id="westEastBottom0.0" depart="2.00" departLane="westJunction_0" departPos="5.10" departSpeed="13.89" departDelay="0.12" arrival="78.00" arrivalLane="junctionEast_0" arrivalPos="492.80" arrivalSpeed="13.73" duration="76.00" routeLength="994.90" waitingTime="0.00" waitingCount="0" stopTime="0.00" timeLoss="3.70" rerouteNo="0" devices="tripinfo_westEastBottom0.0 ssm_westEastBottom0.0" vType="carCustom" speedFactor="1.02" vaporized=""/>
    <tripinfo id="southEast.1" depart="37.00" departLane="southJunction_0" departPos="5.10" departSpeed="12.81" departDelay="0.95" arrival="80.00" arrivalLane="junctionEast_0" arrivalPos="492.80" arrivalSpeed="6.59" duration="43.00" routeLength="989.53" waitingTime="1.00" waitingCount="1" stopTime="0.00" timeLoss="6.72" rerouteNo="0" devices="tripinfo_southEast.1 ssm_southEast.1" vType="carCustom" speedFactor="1.15" vaporized="teleport"/>
    <tripinfo id="westEastBottom0.1" depart="7.00" departLane="westJunction_0" departPos="5.10" departSpeed="12.69" departDelay="0.14" arrival="82.00" arrivalLane="junctionEast_0" arrivalPos="492.80" arrivalSpeed="13.65" duration="75.00" routeLength="994.90" waitingTime="0.00" waitingCount="0" stopTime="0.00" timeLoss="3.19" rerouteNo="0" devices="tripinfo_westEastBottom0.1 ssm_westEastBottom0.1" vType="carCustom" speedFactor="1.08" vaporized=""/>
    <tripinfo id="westEastTop.1" depart="11.00" departLane="westJunction_1" departPos="5.10" departSpeed="13.19" departDelay="0.54" arrival="87.00" arrivalLane="junctionEast_0" arrivalPos="492.80" arrivalSpeed="13.31" duration="76.00" routeLength="994.90" waitingTime="0.00" waitingCount="0" stopTime="0.00" timeLoss="3.74" rerouteNo="0" devices="tripinfo_westEastTop.1 ssm_westEastTop.1" vType="carCustom" speedFactor="0.83" vaporized=""/>
    <tripinfo id="westEastTop.2" depart="14.00" departLane="westJunction_1" departPos="5.10" departSpeed="13.21" departDelay="0.45" arrival="90.00" arrivalLane="junctionEast_0" arrivalPos="492.80" arrivalSpeed="12.73" duration="76.00" routeLength="994.90" waitingTime="0.00" waitingCount="0" stopTime="0.00" timeLoss="3.50" rerouteNo="0" devices="tripinfo_westEastTop.2 ssm_westEastTop.2" vType="carCustom" speedFactor="1.09" vaporized=""/>
    <tripinfo id="southNorth.0" depart="14.00" departLane="southJunction_1" departPos="5.10" departSpeed="13.89" departDelay="0.09" arrival="94.00" arrivalLane="junctionNorth_0" arrivalPos="492.80" arrivalSpeed="13.74" duration="80.00" routeLength="995.01" waitingTime="0.00" waitingCount="0" stopTime="0.00" timeLoss="8.13" rerouteNo="0" devices="tripinfo_southNorth.0 ssm_southNorth.0" vType="carCustom" speedFactor="1.04" vaporized=""/>
    <tripinfo id="westEastBottom0.6" depart="56.00" departLane="westJunction_0" departPos="5.10" departSpeed="12.50" departDelay="0.59" arrival="98.00" arrivalLane="junctionEast_0" arrivalPos="492.80" arrivalSpeed="7.39" duration="42.00" routeLength="994.90" waitingTime="0.00" waitingCount="0" stopTime="0.00" timeLoss="5.85" rerouteNo="0" devices="tripinfo_westEastBottom0.6 ssm_westEastBottom0.6" vType="carCustom" speedFactor="0.97" vaporized="teleport"/>
    <tripinfo id="westEastTop.3" depart="20.00" departLane="westJunction_1" departPos="5.10" departSpeed="13.05" departDelay="0.34" arrival="99.00" arrivalLane="junctionEast_0" arrivalPos="492.80" arrivalSpeed="13.28" duration="79.00" routeLength="994.90" waitingTime="0.00" waitingCount="0" stopTime="0.00" timeLoss="6.64" rerouteNo="0" devices="tripinfo_westEastTop.3 ssm_westEastTop.3" vType="carCustom" speedFactor="0.96" vaporized=""/>
    <tripinfo id="westEastTop.4" depart="23.00" departLane="westJunction_1" departPos="5.10" departSpeed="13.82" departDelay="0.59" arrival="101.00" arrivalLane="junctionEast_0" arrivalPos="492.80" arrivalSpeed="13.83" duration="78.00" routeLength="994.90" waitingTime="0.00" waitingCount="0" stopTime="0.00" timeLoss="6.03" rerouteNo="0" devices="tripinfo_westEastTop.4 ssm_westEastTop.4" vType="carCustom" speedFactor="1.08" vaporized=""/>
    <tripinfo id="southEast.6" depart="53.00" departLane="southJunction_0" departPos="5.10" departSpeed="13.71" departDelay="0.90" arrival="101.00" arrivalLane="junctionEast_0" arrivalPos="492.80" arrivalSpeed="6.55" duration="48.00" routeLength="989.53" waitingTime="0.00" waitingCount="0" stopTime="0.00" timeLoss="11.54" rerouteNo="0" devices="tripinfo_southEast.6 ssm_southEast.6" vType="carCustom" speedFactor="1.06" vaporized="teleport"/>
    <tripinfo id="westEastTop.5" depart="26.00" departLane="westJunction_1" departPos="5.10" departSpeed="13.09" departDelay="0.31" arrival="103.00" arrivalLane="junctionEast_0" arrivalPos="492.80" arrivalSpeed="12.66" duration="77.00" routeLength="994.90" waitingTime="0.00" waitingCount="0" stopTime="0.00" timeLoss="5.33" rerouteNo="0" devices="tripinfo_westEastTop.5 ssm_westEastTop.5" vType="carCustom" speedFactor="0.98" vaporized=""/>
    <tripinfo id="southNorth.1" depart="24.00" departLane="southJunction_1" departPos="5.10" departSpeed="13.38" departDelay="0.77" arrival="107.00" arrivalLane="junctionNorth_0" arrivalPos="492.80" arrivalSpeed="13.31" duration="83.00" routeLength="995.01" waitingTime="2.00" waitingCount="1" stopTime="0.00" timeLoss="10.95" rerouteNo="0" devices="tripinfo_southNorth.1 ssm_southNorth.1" vType="carCustom" speedFactor="0.87" vaporized=""/>
    <tripinfo id="westEastTop.6" depart="29.00" departLane="westJunction_1" departPos="5.10" departSpeed="13.60" departDelay="0.05" arrival="112.00" arrivalLane="junctionEast_1" arrivalPos="492.80" arrivalSpeed="13.67" duration="83.00" routeLength="994.90" waitingTime="2.00" waitingCount="1" stopTime="0.00" timeLoss="10.70" rerouteNo="0" devices="tripinfo_westEastTop.6 ssm_westEastTop.6" vType="carCustom" speedFactor="1.06" vaporized=""/>
    <tripinfo id="westEastBottom0.2" depart="31.00" departLane="westJunction_0" departPos="5.10" departSpeed="13.37" departDelay="0.42" arrival="112.00" arrivalLane="junctionEast_0" arrivalPos="492.80" arrivalSpeed="13.52" duration="81.00" routeLength="994.90" waitingTime="0.00" waitingCount="0" stopTime="0.00" timeLoss="8.62" rerouteNo="0" devices="tripinfo_westEastBottom0.2 ssm_westEastBottom0.2" vType="carCustom" speedFactor="1.22" vaporized=""/>
    <tripinfo id="westEastTop.7" depart="33.00" departLane="westJunction_1" departPos="5.10" departSpeed="12.60" departDelay="0.37" arrival="114.00" arrivalLane="junctionEast_0" arrivalPos="492.80" arrivalSpeed="13.26" duration="81.00" routeLength="994.90" waitingTime="0.00" waitingCount="0" stopTime="0.00" timeLoss="8.83" rerouteNo="0" devices="tripinfo_westEastTop.7 ssm_westEastTop.7" vType="carCustom" speedFactor="1.09" vaporized=""/>
    <tripinfo id="southEast.0" depart="33.00" departLane="southJunction_0" departPos="5.10" departSpeed="13.89" departDelay="0.60" arrival="116.00" arrivalLane="junctionEast_0" arrivalPos="492.80" arrivalSpeed="13.19" duration="83.00" routeLength="989.53" waitingTime="5.00" waitingCount="1" stopTime="0.00" timeLoss="10.92" rerouteNo="0" devices="tripinfo_southEast.0 ssm_southEast.0" vType="carCustom" speedFactor="1.22" vaporized=""/>
    <tripinfo id="westEastTop.8" depart="35.00" departLane="westJunction_1" departPos="5.10" departSpeed="13.55" departDelay="0.90" arrival="116.00" arrivalLane="junctionEast_1" arrivalPos="492.80" arrivalSpeed="13.09" duration="81.00" routeLength="994.90" waitingTime="0.00" waitingCount="0" stopTime="0.00" timeLoss="9.01" rerouteNo="0" devices="tripinfo_westEastTop.8 ssm_westEastTop.8" vType="carCustom" speedFactor="0.85" vaporized=""/>
    <tripinfo id="westEastBottom0.3" depart="41.00" departLane="westJunction_0" departPos="5.10" departSpeed="12.79" departDelay="0.75" arrival="119.00" arrivalLane="junctionEast_0" arrivalPos="492.80" arrivalSpeed="13.00" duration="78.00" routeLength="994.90" waitingTime="0.00" waitingCount="0" stopTime="0.00" timeLoss="5.67" rerouteNo="0" devices="tripinfo_westEastBottom0.3 ssm_westEastBottom0.3" vType="carCustom" speedFactor="0.93" vaporized=""/>
    <tripinfo id="southNorth.2" depart="29.00" departLane="southJunction_1" departPos="5.10" departSpeed="12.92" departDelay="0.76" arrival="121.00" arrivalLane="junctionNorth_0" arrivalPos="492.80" arrivalSpeed="13.79" duration="92.00" routeLength="995.01" waitingTime="10.00" waitingCount="1" stopTime="0.00" timeLoss="20.32" rerouteNo="0" devices="tripinfo_southNorth.2 ssm_southNorth.2" vType="carCustom" speedFactor="1.23" vaporized=""/>
    <tripinfo id="southEast.2" depart="39.00" departLane="southJunction_0" departPos="5.10" departSpeed="13.77" departDelay="1.87" arrival="123.00" arrivalLane="junctionEast_0" arrivalPos="492.80" arrivalSpeed="13.42" duration="84.00" routeLength="989.53" waitingTime="0.00" waitingCount="0" stopTime="0.00" timeLoss="10.97" rerouteNo="0" devices="tripinfo_southEast.2 ssm_southEast.2" vType="carCustom" speedFactor="0.78" vaporized=""/>
    <tripinfo id="southEast.10" depart="78.00" departLane="southJunction_0" departPos="5.10" departSpeed="12.62" departDelay="0.85" arrival="123.00" arrivalLane="junctionEast_0" arrivalPos="492.80" arrivalSpeed="5.61" duration="45.00" routeLength="989.53" waitingTime="2.00" waitingCount="1" stopTime="0.00" timeLoss="8.61" rerouteNo="0" devices="tripinfo_southEast.10 ssm_southEast.10" vType="carCustom" speedFactor="1.00" vaporized="teleport"/>
    <tripinfo id="southNorth.3" depart="37.00" departLane="southJunction_1" departPos="5.10" departSpeed="13.25" departDelay="0.42" arrival="124.00" arrivalLane="junctionNorth_0" arrivalPos="492.80" arrivalSpeed="12.84" duration="87.00" routeLength="995.01" waitingTime="3.00" waitingCount="1" stopTime="0.00" timeLoss="14.92" rerouteNo="0" devices="tripinfo_southNorth.3 ssm_southNorth.3" vType="carCustom" speedFactor="0.99" vaporized=""/>
    <tripinfo id="westEastBottom0.4" depart="49.00" departLane="westJunction_0" departPos="5.10" departSpeed="13.21" departDelay="0.27" arrival="125.00" arrivalLane="junctionEast_0" arrivalPos="492.80" arrivalSpeed="12.79" duration="76.00" routeLength="994.90" waitingTime="0.00" waitingCount="0" stopTime="0.00" timeLoss="4.27" rerouteNo="0" devices="tripinfo_westEastBottom0.4 ssm_westEastBottom0.4" vType="carCustom" speedFactor="0.89" vaporized=""/>
    <tripinfo id="westEastBottom0.5" depart="51.00" departLane="westJunction_0" departPos="5.10" departSpeed="12.60" departDelay="0.10" arrival="128.00" arrivalLane="junctionEast_0" arrivalPos="492.80" arrivalSpeed="13.80" duration="77.00" routeLength="994.90" waitingTime="0.00" waitingCount="0" stopTime="0.00" timeLoss="4.50" rerouteNo="0" devices="tripinfo_westEastBottom0.5 ssm_westEastBottom0.5" vType="carCustom" speedFactor="1.08" vaporized=""/>
    <tripinfo id="southEast.3" depart="42.00" departLane="southJunction_0" departPos="5.10" departSpeed="12.85" departDelay="0.33" arrival="131.00" arrivalLane="junctionEast_0" arrivalPos="492.80" arrivalSpeed="13.79" duration="89.00" routeLength="989.53" waitingTime="5.00" waitingCount="1" stopTime="0.00" timeLoss="16.86" rerouteNo="0" devices="tripinfo_southEast.3 ssm_southEast.3" vType="carCustom" speedFactor="1.09" vaporized=""/>
    <tripinfo id="southNorth.4" depart="47.00" departLane="southJunction_1" departPos="5.10" departSpeed="12.83" departDelay="0.83" arrival="132.00" arrivalLane="junctionNorth_0" arrivalPos="492.80" arrivalSpeed="13.33" duration="85.00" routeLength="995.01" waitingTime="2.00" waitingCount="1" stopTime="0.00" timeLoss="13.21" rerouteNo="0" devices="tripinfo_southNorth.4 ssm_southNorth.4" vType="carCustom" speedFactor="0.94" vaporized=""/>
    <tripinfo id="southEast.4" depart="44.00" departLane="southJunction_0" departPos="5.10" departSpeed="13.33" departDelay="0.74" arrival="134.00" arrivalLane="junctionEast_0" arrivalPos="492.80" arrivalSpeed="12.74" duration="90.00" routeLength="989.53" waitingTime="5.00" waitingCount="1" stopTime="0.00" timeLoss="17.69" rerouteNo="0" devices="tripinfo_southEast.4 ssm_southEast.4" vType="carCustom" speedFactor="1.01" vaporized=""/>
    <tripinfo id="southNorth.5" depart="53.00" departLane="southJunction_1" departPos="5.10" departSpeed="13.64" departDelay="0.57" arrival="135.00" arrivalLane="junctionNorth_0" arrivalPos="492.80" arrivalSpeed="13.00" duration="82.00" routeLength="995.01" waitingTime="0.00" waitingCount="0" stopTime="0.00" timeLoss="9.68" rerouteNo="0" devices="tripinfo_southNorth.5 ssm_southNorth.5" vType="carCustom" speedFactor="0.92" vaporized=""/>
    <tripinfo id="westEastTop.9" depart="54.00" departLane="westJunction_1" departPos="5.10" departSpeed="12.59" departDelay="0.15" arrival="136.00" arrivalLane="junctionEast_1" arrivalPos="492.80" arrivalSpeed="13.81" duration="82.00" routeLength="994.90" waitingTime="5.00" waitingCount="1" stopTime="0.00" timeLoss="10.30" rerouteNo="0" devices="tripinfo_westEastTop.9 ssm_westEastTop.9" vType="carCustom" speedFactor="0.96" vaporized=""/>
    <tripinfo id="southEast.5" depart="49.00" departLane="southJunction_0" departPos="5.10" departSpeed="13.24" departDelay="0.72" arrival="137.00" arrivalLane="junctionEast_0" arrivalPos="492.80" arrivalSpeed="13.56" duration="88.00" routeLength="989.53" waitingTime="2.00" waitingCount="1" stopTime="0.00" timeLoss="15.55" rerouteNo="0" devices="tripinfo_southEast.5 ssm_southEast.5" vType="carCustom" speedFactor="1.07" vaporized=""/>
    <tripinfo id="westEastBottom0.7" depart="58.00" departLane="westJunction_0" departPos="5.10" departSpeed="12.70" departDelay="1.51" arrival="139.00" arrivalLane="junctionEast_0" arrivalPos="492.80" arrivalSpeed="13.87" duration="81.00" routeLength="994.90" waitingTime="0.00" waitingCount="0" stopTime="0.00" timeLoss="8.82" rerouteNo="0" devices="tripinfo_westEastBottom0.7 ssm_westEastBottom0.7" vType="carCustom" speedFactor="1.01" vaporized=""/>
    <tripinfo id="westEastTop.10" depart="58.00" departLane="westJunction_1" departPos="5.10" departSpeed="13.86" departDelay="0.36" arrival="139.00" arrivalLane="junctionEast_1" arrivalPos="492.80" arrivalSpeed="12.99" duration="81.00" routeLength="994.90" waitingTime="0.00" waitingCount="0" stopTime="0.00" timeLoss="8.67" rerouteNo="0" devices="tripinfo_westEastTop.10 ssm_westEastTop.10" vType="carCustom" speedFactor="1.01" vaporized=""/>
    <tripinfo id="southNorth.6" depart="57.00" departLane="southJunction_1" departPos="5.10" departSpeed="13.36" departDelay="0.20" arrival="142.00" arrivalLane="junctionNorth_0" arrivalPos="492.80" arrivalSpeed="13.63" duration="85.00" routeLength="995.01" waitingTime="2.00" waitingCount="1" stopTime="0.00" timeLoss="12.62" rerouteNo="0" devices="tripinfo_southNorth.6 ssm_southNorth.6" vType="carCustom" speedFactor="0.96" vaporized=""/>
    <tripinfo id="southEast.7" depart="59.00" departLane="southJunction_0" departPos="5.10" departSpeed="13.88" departDelay="0.47" arrival="142.00" arrivalLane="junctionEast_0" arrivalPos="492.80" arrivalSpeed="13.85" duration="83.00" routeLength="989.53" waitingTime="0.00" waitingCount="0" stopTime="0.00" timeLoss="10.69" rerouteNo="0" devices="tripinfo_southEast.7 ssm_southEast.7" vType="carCustom" speedFactor="0.99" vaporized=""/>
    <tripinfo id="southNorth.7" depart="63.00" departLane="southJunction_1" departPos="5.10" departSpeed="13.29" departDelay="0.09" arrival="144.00" arrivalLane="junctionNorth_0" arrivalPos="492.80" arrivalSpeed="12.59" duration="81.00" routeLength="995.01" waitingTime="0.00" waitingCount="0" stopTime="0.00" timeLoss="8.97" rerouteNo="0" devices="tripinfo_southNorth.7 ssm_southNorth.7" vType="carCustom" speedFactor="0.96" vaporized=""/>
    <tripinfo id="westEastTop.11" depart="63.00" departLane="westJunction_1" departPos="5.10" departSpeed="12.99" departDelay="0.55" arrival="147.00" arrivalLane="junctionEast_1" arrivalPos="492.80" arrivalSpeed="13.16" duration="84.00" routeLength="994.90" waitingTime="2.00" waitingCount="1" stopTime="0.00" timeLoss="11.61" rerouteNo="0" devices="tripinfo_westEastTop.11 ssm_westEastTop.11" vType="carCustom" speedFactor="0.97" vaporized=""/>
    <tripinfo id="westEastBottom0.8" depart="66.00" departLane="westJunction_0" departPos="5.10" departSpeed="12.93" departDelay="0.03" arrival="147.00" arrivalLane="junctionEast_0" arrivalPos="492.80" arrivalSpeed="13.08" duration="81.00" routeLength="994.90" waitingTime="0.00" waitingCount="0" stopTime="0.00" timeLoss="8.56" rerouteNo="0" devices="tripinfo_westEastBottom0.8 ssm_westEastBottom0.8" vType="carCustom" speedFactor="1.15" vaporized=""/>
    <tripinfo id="southEast.8" depart="62.00" departLane="southJunction_0" departPos="5.10" departSpeed="13.31" departDelay="0.66" arrival="151.00" arrivalLane="junctionEast_0" arrivalPos="492.80" arrivalSpeed="13.35" duration="89.00" routeLength="989.53" waitingTime="5.00" waitingCount="1" stopTime="0.00" timeLoss="16.97" rerouteNo="0" devices="tripinfo_southEast.8 ssm_southEast.8" vType="carCustom" speedFactor="1.03" vaporized=""/>
    <tripinfo id="southNorth.8" depart="72.00" departLane="southJunction_1" departPos="5.10" departSpeed="13.81" departDelay="0.83" arrival="151.00" arrivalLane="junctionNorth_0" arrivalPos="492.80" arrivalSpeed="12.68" duration="79.00" routeLength="995.01" waitingTime="0.00" waitingCount="0" stopTime="0.00" timeLoss="6.53" rerouteNo="0" devices="tripinfo_southNorth.8 ssm_southNorth.8" vType="carCustom" speedFactor="1.08" vaporized=""/>
    <tripinfo id="southEast.9" depart="71.00" departLane="southJunction_0" departPos="5.10" departSpeed="13.07" departDelay="0.92" arrival="154.00" arrivalLane="junctionEast_0" arrivalPos="492.80" arrivalSpeed="13.38" duration="83.00" routeLength="989.53" waitingTime="1.00" waitingCount="1" stopTime="0.00" timeLoss="10.65" rerouteNo="0" devices="tripinfo_southEast.9 ssm_southEast.9" vType="carCustom" speedFactor="0.91" vaporized=""/>
    <tripinfo id="westEastTop.12" depart="78.00" departLane="westJunction_1" departPos="5.10" departSpeed="13.13" departDelay="0.34" arrival="155.00" arrivalLane="junctionEast_1" arrivalPos="492.80" arrivalSpeed="12.60" duration="77.00" routeLength="994.90" waitingTime="0.00" waitingCount="0" stopTime="0.00" timeLoss="4.96" rerouteNo="0" devices="tripinfo_westEastTop.12 ssm_westEastTop.12" vType="carCustom" speedFactor="1.15" vaporized=""/>
    <tripinfo id="westEastBottom0.9" depart="77.00" departLane="westJunction_0" departPos="5.10" departSpeed="13.31" departDelay="0.40" arrival="157.00" arrivalLane="junctionEast_0" arrivalPos="492.80" arrivalSpeed="13.15" duration="80.00" routeLength="994.90" waitingTime="0.00" waitingCount="0" stopTime="0.00" timeLoss="7.71" rerouteNo="0" devices="tripinfo_westEastBottom0.9 ssm_westEastBottom0.9" vType="carCustom" speedFactor="1.02" vaporized=""/>
    <tripinfo id="westEastBottom0.10" depart="79.00" departLane="westJunction_0" departPos="5.10" departSpeed="13.63" departDelay="1.89" arrival="159.00" arrivalLane="junctionEast_0" arrivalPos="492.80" arrivalSpeed="12.94" duration="80.00" routeLength="994.90" waitingTime="0.00" waitingCount="0" stopTime="0.00" timeLoss="8.04" rerouteNo="0" devices="tripinfo_westEastBottom0.10 ssm_westEastBottom0.10" vType="carCustom" speedFactor="1.10" vaporized=""/>
    <tripinfo id="westEastTop.13" depart="83.00" departLane="westJunction_1" departPos="5.10" departSpeed="13.43" departDelay="0.51" arrival="159.00" arrivalLane="junctionEast_1" arrivalPos="492.80" arrivalSpeed="13.43" duration="76.00" routeLength="994.90" waitingTime="0.00" waitingCount="0" stopTime="0.00" timeLoss="3.51" rerouteNo="0" devices="tripinfo_westEastTop.13 ssm_westEastTop.13" vType="carCustom" speedFactor="1.01" vaporized=""/>
    <tripinfo id="westEastBottom0.11" depart="82.00" departLane="westJunction_0" departPos="5.10" departSpeed="12.35" departDelay="0.79" arrival="161.00" arrivalLane="junctionEast_0" arrivalPos="492.80" arrivalSpeed="13.57" duration="79.00" routeLength="994.90" waitingTime="0.00" waitingCount="0" stopTime="0.00" timeLoss="7.29" rerouteNo="0" devices="tripinfo_westEastBottom0.11 ssm_westEastBottom0.11" vType="carCustom" speedFactor="1.14" vaporized=""/>
    <tripinfo id="westEastTop.14" depart="85.00" departLane="westJunction_1" departPos="5.10" departSpeed="13.09" departDelay="0.05" arrival="161.00" arrivalLane="junctionEast_1" arrivalPos="492.80" arrivalSpeed="13.84" duration="76.00" routeLength="994.90" waitingTime="0.00" waitingCount="0" stopTime="0.00" timeLoss="4.19" rerouteNo="0" devices="tripinfo_westEastTop.14 ssm_westEastTop.14" vType="carCustom" speedFactor="0.86" vaporized=""/>
    <tripinfo id="westEastTop.15" depart="87.00" departLane="westJunction_1" departPos="5.10" departSpeed="12.48" departDelay="1.76" arrival="164.00" arrivalLane="junctionEast_0" arrivalPos="492.80" arrivalSpeed="12.72" duration="77.00" routeLength="994.90" waitingTime="0.00" waitingCount="0" stopTime="0.00" timeLoss="4.72" rerouteNo="0" devices="tripinfo_westEastTop.15 ssm_westEastTop.15" vType="carCustom" speedFactor="0.92" vaporized=""/>
    <tripinfo id="westEastTop.16" depart="90.00" departLane="westJunction_1" departPos="5.10" departSpeed="12.28" departDelay="0.17" arrival="166.00" arrivalLane="junctionEast_0" arrivalPos="492.80" arrivalSpeed="12.83" duration="76.00" routeLength="994.90" waitingTime="0.00" waitingCount="0" stopTime="0.00" timeLoss="3.97" rerouteNo="0" devices="tripinfo_westEastTop.16 ssm_westEastTop.16" vType="carCustom" speedFactor="1.00" vaporized=""/>
    <tripinfo id="westEastBottom0.12" depart="95.00" departLane="westJunction_0" departPos="5.10" departSpeed="13.83" departDelay="0.77" arrival="171.00" arrivalLane="junctionEast_0" arrivalPos="492.80" arrivalSpeed="13.25" duration="76.00" routeLength="994.90" waitingTime="0.00" waitingCount="0" stopTime="0.00" timeLoss="4.03" rerouteNo="0" devices="tripinfo_westEastBottom0.12 ssm_westEastBottom0.12" vType="carCustom" speedFactor="1.13" vaporized=""/>
    <tripinfo id="westEastBottom0.13" depart="97.00" departLane="westJunction_0" departPos="5.10" departSpeed="12.79" departDelay="1.86" arrival="173.00" arrivalLane="junctionEast_0" arrivalPos="492.80" arrivalSpeed="12.61" duration="76.00" routeLength="994.90" waitingTime="0.00" waitingCount="0" stopTime="0.00" timeLoss="4.37" rerouteNo="0" devices="tripinfo_westEastBottom0.13 ssm_westEastBottom0.13" vType="carCustom" speedFactor="0.98" vaporized=""/>
    <tripinfo id="westEastTop.17" depart="97.00" departLane="westJunction_1" departPos="5.10" departSpeed="12.83" departDelay="0.09" arrival="173.00" arrivalLane="junctionEast_1" arrivalPos="492.80" arrivalSpeed="12.67" duration="76.00" routeLength="994.90" waitingTime="0.00" waitingCount="0" stopTime="0.00" timeLoss="3.90" rerouteNo="0" devices="tripinfo_westEastTop.17 ssm_westEastTop.17" vType="carCustom" speedFactor="0.89" vaporized=""/>
    <tripinfo id="southNorth.9" depart="100.00" departLane="southJunction_1" departPos="5.10" departSpeed="12.87" departDelay="0.01" arrival="180.00" arrivalLane="junctionNorth_0" arrivalPos="492.80" arrivalSpeed="13.01" duration="80.00" routeLength="995.01" waitingTime="0.00" waitingCount="0" stopTime="0.00" timeLoss="7.94" rerouteNo="0" devices="tripinfo_southNorth.9 ssm_southNorth.9" vType="carCustom" speedFactor="0.85" vaporized=""/>
    <tripinfo id="southEast.11" depart="104.00" departLane="southJunction_0" departPos="5.10" departSpeed="13.31" departDelay="0.97" arrival="182.00" arrivalLane="junctionEast_0" arrivalPos="492.80" arrivalSpeed="12.76" duration="78.00" routeLength="989.53" waitingTime="0.00" waitingCount="0" stopTime="0.00" timeLoss="5.72" rerouteNo="0" devices="tripinfo_southEast.11 ssm_southEast.11" vType="carCustom" speedFactor="0.98" vaporized=""/>
    <tripinfo id="westEastTop.18" depart="107.00" departLane="westJunction_1" departPos="5.10" departSpeed="13.33" departDelay="0.44" arrival="184.00" arrivalLane="junctionEast_1" arrivalPos="492.80" arrivalSpeed="12.83" duration="77.00" routeLength="994.90" waitingTime="0.00" waitingCount="0" stopTime="0.00" timeLoss="4.72" rerouteNo="0" devices="tripinfo_westEastTop.18 ssm_westEastTop.18" vType="carCustom" speedFactor="0.89" vaporized=""/>
    <tripinfo id="westEastBottom0.14" depart="105.00" departLane="westJunction_0" departPos="5.10" departSpeed="13.47" departDelay="0.17" arrival="185.00" arrivalLane="junctionEast_0" arrivalPos="492.80" arrivalSpeed="13.68" duration="80.00" routeLength="994.90" waitingTime="0.00" waitingCount="0" stopTime="0.00" timeLoss="8.30" rerouteNo="0" devices="tripinfo_westEastBottom0.14 ssm_westEastBottom0.14" vType="carCustom" speedFactor="0.88" vaporized=""/>
    <tripinfo id="westEastTop.19" depart="109.00" departLane="westJunction_1" departPos="5.10" departSpeed="13.37" departDelay="1.95" arrival="186.00" arrivalLane="junctionEast_1" arrivalPos="492.80" arrivalSpeed="13.25" duration="77.00" routeLength="994.90" waitingTime="0.00" waitingCount="0" stopTime="0.00" timeLoss="5.06" rerouteNo="0" devices="tripinfo_westEastTop.19 ssm_westEastTop.19" vType="carCustom" speedFactor="1.16" vaporized=""/>
    <tripinfo id="westEastBottom0.15" depart="110.00" departLane="westJunction_0" departPos="5.10" departSpeed="13.01" departDelay="0.34" arrival="188.00" arrivalLane="junctionEast_0" arrivalPos="492.80" arrivalSpeed="12.90" duration="78.00" routeLength="994.90" waitingTime="0.00" waitingCount="0" stopTime="0.00" timeLoss="5.62" rerouteNo="0" devices="tripinfo_westEastBottom0.15 ssm_westEastBottom0.15" vType="carCustom" speedFactor="1.08" vaporized=""/>
    <tripinfo id="southEast.12" depart="110.00" departLane="southJunction_0" departPos="5.10" departSpeed="13.05" departDelay="0.90" arrival="190.00" arrivalLane="junctionEast_0" arrivalPos="492.80" arrivalSpeed="12.65" duration="80.00" routeLength="989.53" waitingTime="0.00" waitingCount="0" stopTime="0.00" timeLoss="7.81" rerouteNo="0" devices="tripinfo_southEast.12 ssm_southEast.12" vType="carCustom" speedFactor="0.94" vaporized=""/>
    <tripinfo id="southNorth.10" depart="109.00" departLane="southJunction_1" departPos="5.10" departSpeed="13.12" departDelay="0.79" arrival="191.00" arrivalLane="junctionNorth_0" arrivalPos="492.80" arrivalSpeed="13.30" duration="82.00" routeLength="995.01" waitingTime="1.00" waitingCount="1" stopTime="0.00" timeLoss="10.08" rerouteNo="0" devices="tripinfo_southNorth.10 ssm_southNorth.10" vType="carCustom" speedFactor="1.02" vaporized=""/>
    <tripinfo id="southNorth.11" depart="111.00" departLane="southJunction_1" departPos="5.10" departSpeed="13.82" departDelay="1.96" arrival="194.00" arrivalLane="junctionNorth_0" arrivalPos="492.80" arrivalSpeed="13.03" duration="83.00" routeLength="995.01" waitingTime="0.00" waitingCount="0" stopTime="0.00" timeLoss="10.57" rerouteNo="0" devices="tripinfo_southNorth.11 ssm_southNorth.11" vType="carCustom" speedFactor="1.03" vaporized=""/>
    <tripinfo id="westEastTop.20" depart="120.00" departLane="westJunction_1" departPos="5.10" departSpeed="12.93" departDelay="0.27" arrival="195.00" arrivalLane="junctionEast_0" arrivalPos="492.80" arrivalSpeed="12.67" duration="75.00" routeLength="994.90" waitingTime="0.00" waitingCount="0" stopTime="0.00" timeLoss="3.26" rerouteNo="0" devices="tripinfo_westEastTop.20 ssm_westEastTop.20" vType="carCustom" speedFactor="0.76" vaporized=""/>
    <tripinfo id="southEast.13" depart="120.00" departLane="southJunction_0" departPos="5.10" departSpeed="12.95" departDelay="0.60" arrival="200.00" arrivalLane="junctionEast_0" arrivalPos="492.80" arrivalSpeed="13.84" duration="80.00" routeLength="989.53" waitingTime="0.00" waitingCount="0" stopTime="0.00" timeLoss="7.59" rerouteNo="0" devices="tripinfo_southEast.13 ssm_southEast.13" vType="carCustom" speedFactor="0.95" vaporized=""/>