<?xml version="1.0" encoding="UTF-8"?>

<!-- generated on 2025-04-29 10:05:50 by Eclipse SUMO sumo Version 1.20.0
<configuration xmlns:xsi="http://www.w3.org/2001/XMLSchema-instance" xsi:noNamespaceSchemaLocation="http://sumo.dlr.de/xsd/sumoConfiguration.xsd">

    <input>
        <net-file value="nets/2lane_unprotected_right/2lane_unprotected_right.net.xml"/>
        <route-files value="nets/2lane_unprotected_right/2lane_unprotected_right.rou.xml"/>
    </input>

    <output>
        <tripinfo-output value="traces/transs50f1_s50_f0.5_random/0245_tripinfo.xml"/>
        <collision-output value="traces/transs50f1_s50_f0.5_random/0245_collisions.xml"/>
        <statistic-output value="traces/transs50f1_s50_f0.5_random/0245_statistics.xml"/>
    </output>

    <processing>
        <collision.action value="teleport"/>
        <collision.check-junctions value="true"/>
        <time-to-teleport value="-1"/>
        <waiting-time-memory value="1000"/>
        <max-depart-delay value="-1"/>
        <default.speeddev value="0.1"/>
    </processing>

    <report>
        <no-warnings value="true"/>
    </report>

    <ssm_device>
        <device.ssm.probability value="1.0"/>
        <device.ssm.measures value="BR"/>
        <device.ssm.file value="/Users/finn/Code/CausalKnowledgeTransfer-4-SafeRL/traces/transs50f1_s50_f0.5_random/0245_ssm.xml"/>
    </ssm_device>

    <traci_server>
        <remote-port value="65437"/>
    </traci_server>

    <random_number>
        <random value="true"/>
    </random_number>

</configuration>
-->

<tripinfos xmlns:xsi="http://www.w3.org/2001/XMLSchema-instance" xsi:noNamespaceSchemaLocation="http://sumo.dlr.de/xsd/tripinfo_file.xsd">
    <tripinfo id="westEastTop.0" depart="3.00" departLane="westJunction_1" departPos="5.10" departSpeed="22.22" departDelay="0.60" arrival="50.00" arrivalLane="junctionEast_1" arrivalPos="492.80" arrivalSpeed="22.07" duration="47.00" routeLength="994.90" waitingTime="0.00" waitingCount="0" stopTime="0.00" timeLoss="1.42" rerouteNo="0" devices="tripinfo_westEastTop.0 ssm_westEastTop.0" vType="carCustom" speedFactor="1.04" vaporized=""/>
    <tripinfo id="westEastTop.1" depart="5.00" departLane="westJunction_1" departPos="5.10" departSpeed="22.05" departDelay="0.59" arrival="58.00" arrivalLane="junctionEast_1" arrivalPos="492.80" arrivalSpeed="21.71" duration="53.00" routeLength="994.90" waitingTime="0.00" waitingCount="0" stopTime="0.00" timeLoss="7.74" rerouteNo="0" devices="tripinfo_westEastTop.1 ssm_westEastTop.1" vType="carCustom" speedFactor="0.90" vaporized=""/>
    <tripinfo id="southEast.0" depart="4.00" departLane="southJunction_0" departPos="5.10" departSpeed="22.22" departDelay="0.16" arrival="65.00" arrivalLane="junctionEast_0" arrivalPos="492.80" arrivalSpeed="21.06" duration="61.00" routeLength="989.53" waitingTime="4.00" waitingCount="1" stopTime="0.00" timeLoss="15.74" rerouteNo="0" devices="tripinfo_southEast.0 ssm_southEast.0" vType="carCustom" speedFactor="1.18" vaporized=""/>
    <tripinfo id="westEastBottom0.0" depart="9.00" departLane="westJunction_0" departPos="5.10" departSpeed="22.22" departDelay="0.18" arrival="66.00" arrivalLane="junctionEast_1" arrivalPos="492.80" arrivalSpeed="21.85" duration="57.00" routeLength="994.90" waitingTime="0.00" waitingCount="0" stopTime="0.00" timeLoss="11.55" rerouteNo="0" devices="tripinfo_westEastBottom0.0 ssm_westEastBottom0.0" vType="carCustom" speedFactor="0.98" vaporized=""/>
    <tripinfo id="southNorth.0" depart="21.00" departLane="southJunction_1" departPos="5.10" departSpeed="22.22" departDelay="0.41" arrival="73.00" arrivalLane="junctionNorth_0" arrivalPos="492.80" arrivalSpeed="22.06" duration="52.00" routeLength="995.01" waitingTime="0.00" waitingCount="0" stopTime="0.00" timeLoss="6.52" rerouteNo="0" devices="tripinfo_southNorth.0 ssm_southNorth.0" vType="carCustom" speedFactor="1.03" vaporized=""/>
    <tripinfo id="southEast.1" depart="10.00" departLane="southJunction_0" departPos="5.10" departSpeed="21.35" departDelay="0.88" arrival="75.00" arrivalLane="junctionEast_0" arrivalPos="492.80" arrivalSpeed="21.71" duration="65.00" routeLength="989.53" waitingTime="2.00" waitingCount="1" stopTime="0.00" timeLoss="19.19" rerouteNo="0" devices="tripinfo_southEast.1 ssm_southEast.1" vType="carCustom" speedFactor="0.97" vaporized=""/>
    <tripinfo id="westEastTop.2" depart="7.00" departLane="westJunction_1" departPos="5.10" departSpeed="17.48" departDelay="2.44" arrival="80.00" arrivalLane="junctionEast_1" arrivalPos="492.80" arrivalSpeed="21.20" duration="73.00" routeLength="994.90" waitingTime="5.00" waitingCount="1" stopTime="0.00" timeLoss="27.38" rerouteNo="0" devices="tripinfo_westEastTop.2 ssm_westEastTop.2" vType="carCustom" speedFactor="1.01" vaporized=""/>
    <tripinfo id="southEast.3" depart="21.00" departLane="southJunction_0" departPos="5.10" departSpeed="19.81" departDelay="1.12" arrival="84.00" arrivalLane="junctionEast_0" arrivalPos="492.80" arrivalSpeed="5.83" duration="63.00" routeLength="989.53" waitingTime="18.00" waitingCount="1" stopTime="0.00" timeLoss="39.64" rerouteNo="0" devices="tripinfo_southEast.3 ssm_southEast.3" vType="carCustom" speedFactor="0.95" vaporized="teleport"/>
    <tripinfo id="westEastBottom0.1" depart="22.00" departLane="westJunction_0" departPos="5.10" departSpeed="22.22" departDelay="0.93" arrival="87.00" arrivalLane="junctionEast_0" arrivalPos="492.80" arrivalSpeed="21.15" duration="65.00" routeLength="994.90" waitingTime="0.00" waitingCount="0" stopTime="0.00" timeLoss="19.46" rerouteNo="0" devices="tripinfo_westEastBottom0.1 ssm_westEastBottom0.1" vType="carCustom" speedFactor="0.99" vaporized=""/>
    <tripinfo id="southEast.2" depart="19.00" departLane="southJunction_0" departPos="5.10" departSpeed="19.88" departDelay="0.80" arrival="91.00" arrivalLane="junctionEast_0" arrivalPos="492.80" arrivalSpeed="22.10" duration="72.00" routeLength="989.53" waitingTime="2.00" waitingCount="1" stopTime="0.00" timeLoss="26.44" rerouteNo="0" devices="tripinfo_southEast.2 ssm_southEast.2" vType="carCustom" speedFactor="1.02" vaporized=""/>
    <tripinfo id="westEastBottom0.3" depart="30.00" departLane="westJunction_0" departPos="5.10" departSpeed="13.84" departDelay="0.62" arrival="92.00" arrivalLane="junctionEast_1" arrivalPos="492.80" arrivalSpeed="22.18" duration="62.00" routeLength="994.90" waitingTime="0.00" waitingCount="0" stopTime="0.00" timeLoss="16.31" rerouteNo="0" devices="tripinfo_westEastBottom0.3 ssm_westEastBottom0.3" vType="carCustom" speedFactor="0.99" vaporized=""/>
    <tripinfo id="westEastBottom0.2" depart="25.00" departLane="westJunction_0" departPos="5.10" departSpeed="19.06" departDelay="0.03" arrival="98.00" arrivalLane="junctionEast_1" arrivalPos="492.80" arrivalSpeed="21.30" duration="73.00" routeLength="994.90" waitingTime="0.00" waitingCount="0" stopTime="0.00" timeLoss="27.96" rerouteNo="0" devices="tripinfo_westEastBottom0.2 ssm_westEastBottom0.2" vType="carCustom" speedFactor="0.79" vaporized=""/>
    <tripinfo id="westEastTop.3" depart="20.00" departLane="westJunction_1" departPos="5.10" departSpeed="8.31" departDelay="0.88" arrival="104.00" arrivalLane="junctionEast_1" arrivalPos="492.80" arrivalSpeed="20.95" duration="84.00" routeLength="994.90" waitingTime="0.00" waitingCount="0" stopTime="0.00" timeLoss="38.33" rerouteNo="0" devices="tripinfo_westEastTop.3 ssm_westEastTop.3" vType="carCustom" speedFactor="1.00" vaporized=""/>
    <tripinfo id="westEastTop.4" depart="33.00" departLane="westJunction_1" departPos="5.10" departSpeed="9.91" departDelay="0.96" arrival="109.00" arrivalLane="junctionEast_1" arrivalPos="492.80" arrivalSpeed="21.23" duration="76.00" routeLength="994.90" waitingTime="0.00" waitingCount="0" stopTime="0.00" timeLoss="30.52" rerouteNo="0" devices="tripinfo_westEastTop.4 ssm_westEastTop.4" vType="carCustom" speedFactor="1.09" vaporized=""/>
    <tripinfo id="westEastBottom0.4" depart="54.00" departLane="westJunction_0" departPos="5.10" departSpeed="15.64" departDelay="0.54" arrival="114.00" arrivalLane="junctionEast_1" arrivalPos="492.80" arrivalSpeed="21.80" duration="60.00" routeLength="994.90" waitingTime="0.00" waitingCount="0" stopTime="0.00" timeLoss="14.54" rerouteNo="0" devices="tripinfo_westEastBottom0.4 ssm_westEastBottom0.4" vType="carCustom" speedFactor="0.92" vaporized=""/>
    <tripinfo id="westEastTop.5" depart="38.00" departLane="westJunction_1" departPos="5.10" departSpeed="17.66" departDelay="0.89" arrival="118.00" arrivalLane="junctionEast_0" arrivalPos="492.80" arrivalSpeed="21.90" duration="80.00" routeLength="994.90" waitingTime="0.00" waitingCount="0" stopTime="0.00" timeLoss="34.60" rerouteNo="0" devices="tripinfo_westEastTop.5 ssm_westEastTop.5" vType="carCustom" speedFactor="1.03" vaporized=""/>
    <tripinfo id="southEast.4" depart="38.00" departLane="southJunction_0" departPos="5.10" departSpeed="15.27" departDelay="0.59" arrival="119.00" arrivalLane="junctionEast_1" arrivalPos="492.80" arrivalSpeed="21.18" duration="81.00" routeLength="989.53" waitingTime="9.00" waitingCount="1" stopTime="0.00" timeLoss="34.93" rerouteNo="0" devices="tripinfo_southEast.4 ssm_southEast.4" vType="carCustom" speedFactor="1.09" vaporized=""/>
    <tripinfo id="westEastTop.6" depart="42.00" departLane="westJunction_1" departPos="5.10" departSpeed="13.19" departDelay="0.85" arrival="124.00" arrivalLane="junctionEast_1" arrivalPos="492.80" arrivalSpeed="21.68" duration="82.00" routeLength="994.90" waitingTime="0.00" waitingCount="0" stopTime="0.00" timeLoss="36.65" rerouteNo="0" devices="tripinfo_westEastTop.6 ssm_westEastTop.6" vType="carCustom" speedFactor="0.90" vaporized=""/>
    <tripinfo id="westEastBottom0.5" depart="56.00" departLane="westJunction_0" departPos="5.10" departSpeed="17.01" departDelay="1.74" arrival="125.00" arrivalLane="junctionEast_0" arrivalPos="492.80" arrivalSpeed="21.67" duration="69.00" routeLength="994.90" waitingTime="0.00" waitingCount="0" stopTime="0.00" timeLoss="23.33" rerouteNo="0" devices="tripinfo_westEastBottom0.5 ssm_westEastBottom0.5" vType="carCustom" speedFactor="0.98" vaporized=""/>
    <tripinfo id="westEastTop.7" depart="44.00" departLane="westJunction_1" departPos="5.10" departSpeed="11.51" departDelay="2.78" arrival="129.00" arrivalLane="junctionEast_1" arrivalPos="492.80" arrivalSpeed="22.02" duration="85.00" routeLength="994.90" waitingTime="0.00" waitingCount="0" stopTime="0.00" timeLoss="39.97" rerouteNo="0" devices="tripinfo_westEastTop.7 ssm_westEastTop.7" vType="carCustom" speedFactor="1.03" vaporized=""/>
    <tripinfo id="southEast.5" depart="55.00" departLane="southJunction_0" departPos="5.10" departSpeed="15.51" departDelay="0.08" arrival="130.00" arrivalLane="junctionEast_0" arrivalPos="492.80" arrivalSpeed="21.87" duration="75.00" routeLength="989.53" waitingTime="3.00" waitingCount="1" stopTime="0.00" timeLoss="29.84" rerouteNo="0" devices="tripinfo_southEast.5 ssm_southEast.5" vType="carCustom" speedFactor="0.89" vaporized=""/>
    <tripinfo id="southNorth.1" depart="75.00" departLane="southJunction_1" departPos="5.10" departSpeed="22.22" departDelay="0.40" arrival="131.00" arrivalLane="junctionNorth_0" arrivalPos="492.80" arrivalSpeed="21.46" duration="56.00" routeLength="995.01" waitingTime="0.00" waitingCount="0" stopTime="0.00" timeLoss="10.32" rerouteNo="0" devices="tripinfo_southNorth.1 ssm_southNorth.1" vType="carCustom" speedFactor="0.95" vaporized=""/>
    <tripinfo id="westEastTop.8" depart="46.00" departLane="westJunction_1" departPos="5.10" departSpeed="7.53" departDelay="3.57" arrival="135.00" arrivalLane="junctionEast_1" arrivalPos="492.80" arrivalSpeed="21.22" duration="89.00" routeLength="994.90" waitingTime="0.00" waitingCount="0" stopTime="0.00" timeLoss="43.58" rerouteNo="0" devices="tripinfo_westEastTop.8 ssm_westEastTop.8" vType="carCustom" speedFactor="0.98" vaporized=""/>
    <tripinfo id="westEastBottom0.6" depart="62.00" departLane="westJunction_0" departPos="5.10" departSpeed="11.91" departDelay="0.46" arrival="136.00" arrivalLane="junctionEast_0" arrivalPos="492.80" arrivalSpeed="20.98" duration="74.00" routeLength="994.90" waitingTime="0.00" waitingCount="0" stopTime="0.00" timeLoss="29.05" rerouteNo="0" devices="tripinfo_westEastBottom0.6 ssm_westEastBottom0.6" vType="carCustom" speedFactor="1.23" vaporized=""/>
    <tripinfo id="westEastTop.9" depart="53.00" departLane="westJunction_1" departPos="5.10" departSpeed="7.58" departDelay="0.14" arrival="141.00" arrivalLane="junctionEast_1" arrivalPos="492.80" arrivalSpeed="21.63" duration="88.00" routeLength="994.90" waitingTime="5.00" waitingCount="1" stopTime="0.00" timeLoss="42.50" rerouteNo="0" devices="tripinfo_westEastTop.9 ssm_westEastTop.9" vType="carCustom" speedFactor="1.06" vaporized=""/>
    <tripinfo id="southEast.6" depart="66.00" departLane="southJunction_0" departPos="5.10" departSpeed="21.63" departDelay="0.15" arrival="142.00" arrivalLane="junctionEast_0" arrivalPos="492.80" arrivalSpeed="21.13" duration="76.00" routeLength="989.53" waitingTime="2.00" waitingCount="1" stopTime="0.00" timeLoss="30.20" rerouteNo="0" devices="tripinfo_southEast.6 ssm_southEast.6" vType="carCustom" speedFactor="0.93" vaporized=""/>
    <tripinfo id="westEastTop.10" depart="55.00" departLane="westJunction_1" departPos="5.10" departSpeed="7.11" departDelay="2.02" arrival="147.00" arrivalLane="junctionEast_1" arrivalPos="492.80" arrivalSpeed="21.97" duration="92.00" routeLength="994.90" waitingTime="0.00" waitingCount="0" stopTime="0.00" timeLoss="46.68" rerouteNo="0" devices="tripinfo_westEastTop.10 ssm_westEastTop.10" vType="carCustom" speedFactor="1.01" vaporized=""/>
    <tripinfo id="westEastBottom0.7" depart="65.00" departLane="westJunction_0" departPos="5.10" departSpeed="11.72" departDelay="0.20" arrival="148.00" arrivalLane="junctionEast_0" arrivalPos="492.80" arrivalSpeed="22.19" duration="83.00" routeLength="994.90" waitingTime="0.00" waitingCount="0" stopTime="0.00" timeLoss="37.32" rerouteNo="0" devices="tripinfo_westEastBottom0.7 ssm_westEastBottom0.7" vType="carCustom" speedFactor="0.98" vaporized=""/>
    <tripinfo id="southEast.7" depart="68.00" departLane="southJunction_0" departPos="5.10" departSpeed="21.66" departDelay="1.08" arrival="153.00" arrivalLane="junctionEast_0" arrivalPos="492.80" arrivalSpeed="21.12" duration="85.00" routeLength="989.53" waitingTime="4.00" waitingCount="1" stopTime="0.00" timeLoss="39.54" rerouteNo="0" devices="tripinfo_southEast.7 ssm_southEast.7" vType="carCustom" speedFactor="1.14" vaporized=""/>
    <tripinfo id="westEastBottom0.8" depart="79.00" departLane="westJunction_0" departPos="5.10" departSpeed="11.70" departDelay="0.93" arrival="153.00" arrivalLane="junctionEast_1" arrivalPos="492.80" arrivalSpeed="20.96" duration="74.00" routeLength="994.90" waitingTime="0.00" waitingCount="0" stopTime="0.00" timeLoss="28.73" rerouteNo="0" devices="tripinfo_westEastBottom0.8 ssm_westEastBottom0.8" vType="carCustom" speedFactor="0.99" vaporized=""/>
    <tripinfo id="westEastTop.11" depart="58.00" departLane="westJunction_1" departPos="5.10" departSpeed="5.89" departDelay="4.09" arrival="159.00" arrivalLane="junctionEast_1" arrivalPos="492.80" arrivalSpeed="21.64" duration="101.00" routeLength="994.90" waitingTime="0.00" waitingCount="0" stopTime="0.00" timeLoss="55.53" rerouteNo="0" devices="tripinfo_westEastTop.11 ssm_westEastTop.11" vType="carCustom" speedFactor="1.09" vaporized=""/>
    <tripinfo id="southEast.8" depart="76.00" departLane="southJunction_0" departPos="5.10" departSpeed="15.42" departDelay="0.60" arrival="159.00" arrivalLane="junctionEast_0" arrivalPos="492.80" arrivalSpeed="21.18" duration="83.00" routeLength="989.53" waitingTime="0.00" waitingCount="0" stopTime="0.00" timeLoss="37.11" rerouteNo="0" devices="tripinfo_southEast.8 ssm_southEast.8" vType="carCustom" speedFactor="1.08" vaporized=""/>
    <tripinfo id="westEastTop.12" depart="62.00" departLane="westJunction_1" departPos="5.10" departSpeed="5.09" departDelay="3.84" arrival="164.00" arrivalLane="junctionEast_1" arrivalPos="492.80" arrivalSpeed="21.64" duration="102.00" routeLength="994.90" waitingTime="0.00" waitingCount="0" stopTime="0.00" timeLoss="57.06" rerouteNo="0" devices="tripinfo_westEastTop.12 ssm_westEastTop.12" vType="carCustom" speedFactor="0.84" vaporized=""/>
    <tripinfo id="westEastBottom0.9" depart="99.00" departLane="westJunction_0" departPos="5.10" departSpeed="14.47" departDelay="0.51" arrival="164.00" arrivalLane="junctionEast_0" arrivalPos="492.80" arrivalSpeed="21.83" duration="65.00" routeLength="994.90" waitingTime="0.00" waitingCount="0" stopTime="0.00" timeLoss="20.14" rerouteNo="0" devices="tripinfo_westEastBottom0.9 ssm_westEastBottom0.9" vType="carCustom" speedFactor="1.05" vaporized=""/>
    <tripinfo id="westEastTop.13" depart="65.00" departLane="westJunction_1" departPos="5.10" departSpeed="4.54" departDelay="3.20" arrival="170.00" arrivalLane="junctionEast_1" arrivalPos="492.80" arrivalSpeed="21.86" duration="105.00" routeLength="994.90" waitingTime="0.00" waitingCount="0" stopTime="0.00" timeLoss="59.65" rerouteNo="0" devices="tripinfo_westEastTop.13 ssm_westEastTop.13" vType="carCustom" speedFactor="0.90" vaporized=""/>
    <tripinfo id="southEast.9" depart="104.00" departLane="southJunction_0" departPos="5.10" departSpeed="10.66" departDelay="0.74" arrival="170.00" arrivalLane="junctionEast_0" arrivalPos="492.80" arrivalSpeed="21.75" duration="66.00" routeLength="989.53" waitingTime="0.00" waitingCount="0" stopTime="0.00" timeLoss="20.74" rerouteNo="0" devices="tripinfo_southEast.9 ssm_southEast.9" vType="carCustom" speedFactor="1.20" vaporized=""/>
    <tripinfo id="westEastTop.14" depart="70.00" departLane="westJunction_1" departPos="5.10" departSpeed="4.02" departDelay="0.50" arrival="175.00" arrivalLane="junctionEast_1" arrivalPos="492.80" arrivalSpeed="21.39" duration="105.00" routeLength="994.90" waitingTime="0.00" waitingCount="0" stopTime="0.00" timeLoss="60.10" rerouteNo="0" devices="tripinfo_westEastTop.14 ssm_westEastTop.14" vType="carCustom" speedFactor="1.04" vaporized=""/>
    <tripinfo id="westEastBottom0.10" depart="101.00" departLane="westJunction_0" departPos="5.10" departSpeed="17.47" departDelay="0.22" arrival="176.00" arrivalLane="junctionEast_0" arrivalPos="492.80" arrivalSpeed="21.39" duration="75.00" routeLength="994.90" waitingTime="0.00" waitingCount="0" stopTime="0.00" timeLoss="29.47" rerouteNo="0" devices="tripinfo_westEastBottom0.10 ssm_westEastBottom0.10" vType="carCustom" speedFactor="1.11" vaporized=""/>
    <tripinfo id="westEastTop.15" depart="73.00" departLane="westJunction_1" departPos="5.10" departSpeed="3.89" departDelay="0.44" arrival="181.00" arrivalLane="junctionEast_1" arrivalPos="492.80" arrivalSpeed="20.98" duration="108.00" routeLength="994.90" waitingTime="0.00" waitingCount="0" stopTime="0.00" timeLoss="62.39" rerouteNo="0" devices="tripinfo_westEastTop.15 ssm_westEastTop.15" vType="carCustom" speedFactor="1.10" vaporized=""/>
    <tripinfo id="westEastBottom0.11" depart="104.00" departLane="westJunction_0" departPos="5.10" departSpeed="11.52" departDelay="0.72" arrival="181.00" arrivalLane="junctionEast_0" arrivalPos="492.80" arrivalSpeed="21.82" duration="77.00" routeLength="994.90" waitingTime="0.00" waitingCount="0" stopTime="0.00" timeLoss="32.12" rerouteNo="0" devices="tripinfo_westEastBottom0.11 ssm_westEastBottom0.11" vType="carCustom" speedFactor="1.07" vaporized=""/>
    <tripinfo id="westEastTop.16" depart="80.00" departLane="westJunction_1" departPos="5.10" departSpeed="4.98" departDelay="0.88" arrival="186.00" arrivalLane="junctionEast_1" arrivalPos="492.80" arrivalSpeed="21.53" duration="106.00" routeLength="994.90" waitingTime="0.00" waitingCount="0" stopTime="0.00" timeLoss="60.88" rerouteNo="0" devices="tripinfo_westEastTop.16 ssm_westEastTop.16" vType="carCustom" speedFactor="0.96" vaporized=""/>
    <tripinfo id="southEast.10" depart="116.00" departLane="southJunction_0" departPos="5.10" departSpeed="22.12" departDelay="0.99" arrival="187.00" arrivalLane="junctionEast_0" arrivalPos="492.80" arrivalSpeed="20.97" duration="71.00" routeLength="989.53" waitingTime="0.00" waitingCount="0" stopTime="0.00" timeLoss="25.25" rerouteNo="0" devices="tripinfo_southEast.10 ssm_southEast.10" vType="carCustom" speedFactor="1.01" vaporized=""/>
    <tripinfo id="westEastTop.17" depart="83.00" departLane="westJunction_1" departPos="5.10" departSpeed="5.64" departDelay="1.28" arrival="192.00" arrivalLane="junctionEast_1" arrivalPos="492.80" arrivalSpeed="20.95" duration="109.00" routeLength="994.90" waitingTime="0.00" waitingCount="0" stopTime="0.00" timeLoss="63.29" rerouteNo="0" devices="tripinfo_westEastTop.17 ssm_westEastTop.17" vType="carCustom" speedFactor="0.92" vaporized=""/>
    <tripinfo id="southEast.11" depart="134.00" departLane="southJunction_0" departPos="5.10" departSpeed="17.43" departDelay="0.01" arrival="194.00" arrivalLane="junctionEast_0" arrivalPos="492.80" arrivalSpeed="21.12" duration="60.00" routeLength="989.53" waitingTime="0.00" waitingCount="0" stopTime="0.00" timeLoss="13.92" rerouteNo="0" devices="tripinfo_southEast.11 ssm_southEast.11" vType="carCustom" speedFactor="1.03" vaporized=""/>
    <tripinfo id="southNorth.2" depart="102.00" departLane="southJunction_1" departPos="5.10" departSpeed="1.74" departDelay="0.72" arrival="195.00" arrivalLane="junctionNorth_0" arrivalPos="492.80" arrivalSpeed="21.86" duration="93.00" routeLength="995.01" waitingTime="33.00" waitingCount="1" stopTime="0.00" timeLoss="47.80" rerouteNo="0" devices="tripinfo_southNorth.2 ssm_southNorth.2" vType="carCustom" speedFactor="0.96" vaporized=""/>
    <tripinfo id="westEastTop.18" depart="86.00" departLane="westJunction_1" departPos="5.10" departSpeed="4.43" departDelay="2.40" arrival="197.00" arrivalLane="junctionEast_1" arrivalPos="492.80" arrivalSpeed="21.32" duration="111.00" routeLength="994.90" waitingTime="0.00" waitingCount="0" stopTime="0.00" timeLoss="65.79" rerouteNo="0" devices="tripinfo_westEastTop.18 ssm_westEastTop.18" vType="carCustom" speedFactor="1.06" vaporized=""/>
    <tripinfo id="westEastTop.19" depart="90.00" departLane="westJunction_1" departPos="5.10" departSpeed="3.40" departDelay="5.82" arrival="202.00" arrivalLane="junctionEast_1" arrivalPos="492.80" arrivalSpeed="22.13" duration="112.00" routeLength="994.90" waitingTime="0.00" waitingCount="0" stopTime="0.00" timeLoss="67.01" rerouteNo="0" devices="tripinfo_westEastTop.19 ssm_westEastTop.19" vType="carCustom" speedFactor="0.95" vaporized=""/>
    <tripinfo id="southNorth.3" depart="105.00" departLane="southJunction_1" departPos="5.10" departSpeed="9.04" departDelay="3.47" arrival="202.00" arrivalLane="junctionNorth_0" arrivalPos="492.80" arrivalSpeed="22.00" duration="97.00" routeLength="995.01" waitingTime="21.00" waitingCount="1" stopTime="0.00" timeLoss="51.68" rerouteNo="0" devices="tripinfo_southNorth.3 ssm_southNorth.3" vType="carCustom" speedFactor="1.03" vaporized=""/>
    <tripinfo id="westEastBottom0.14" depart="163.00" departLane="westJunction_0" departPos="5.10" departSpeed="12.72" departDelay="0.80" arrival="204.00" arrivalLane="junctionEast_0" arrivalPos="492.80" arrivalSpeed="8.77" duration="41.00" routeLength="994.90" waitingTime="0.00" waitingCount="0" stopTime="0.00" timeLoss="18.40" rerouteNo="0" devices="tripinfo_westEastBottom0.14 ssm_westEastBottom0.14" vType="carCustom" speedFactor="0.96" vaporized="teleport"/>
    <tripinfo id="westEastTop.20" depart="94.00" departLane="westJunction_1" departPos="5.10" departSpeed="2.68" departDelay="5.63" arrival="207.00" arrivalLane="junctionEast_0" arrivalPos="492.80" arrivalSpeed="22.10" duration="113.00" routeLength="994.90" waitingTime="0.00" waitingCount="0" stopTime="0.00" timeLoss="67.25" rerouteNo="0" devices="tripinfo_westEastTop.20 ssm_westEastTop.20" vType="carCustom" speedFactor="1.04" vaporized=""/>
    <tripinfo id="southEast.12" depart="145.00" departLane="southJunction_0" departPos="5.10" departSpeed="21.44" departDelay="0.95" arrival="209.00" arrivalLane="junctionEast_1" arrivalPos="492.80" arrivalSpeed="22.07" duration="64.00" routeLength="989.53" waitingTime="0.00" waitingCount="0" stopTime="0.00" timeLoss="18.29" rerouteNo="0" devices="tripinfo_southEast.12 ssm_southEast.12" vType="carCustom" speedFactor="1.15" vaporized=""/>
    <tripinfo id="westEastTop.21" depart="100.00" departLane="westJunction_1" departPos="5.10" departSpeed="3.13" departDelay="0.98" arrival="212.00" arrivalLane="junctionEast_0" arrivalPos="492.80" arrivalSpeed="22.20" duration="112.00" routeLength="994.90" waitingTime="0.00" waitingCount="0" stopTime="0.00" timeLoss="67.05" rerouteNo="0" devices="tripinfo_westEastTop.21 ssm_westEastTop.21" vType="carCustom" speedFactor="0.92" vaporized=""/>
    <tripinfo id="westEastTop.22" depart="103.00" departLane="westJunction_1" departPos="5.10" departSpeed="3.39" departDelay="2.86" arrival="215.00" arrivalLane="junctionEast_0" arrivalPos="492.80" arrivalSpeed="21.98" duration="112.00" routeLength="994.90" waitingTime="0.00" waitingCount="0" stopTime="0.00" timeLoss="66.53" rerouteNo="0" devices="tripinfo_westEastTop.22 ssm_westEastTop.22" vType="carCustom" speedFactor="1.05" vaporized=""/>
    <tripinfo id="westEastBottom0.12" depart="155.00" departLane="westJunction_0" departPos="5.10" departSpeed="22.22" departDelay="0.57" arrival="219.00" arrivalLane="junctionEast_0" arrivalPos="492.80" arrivalSpeed="21.27" duration="64.00" routeLength="994.90" waitingTime="0.00" waitingCount="0" stopTime="0.00" timeLoss="18.35" rerouteNo="0" devices="tripinfo_westEastBottom0.12 ssm_westEastBottom0.12" vType="carCustom" speedFactor="0.94" vaporized=""/>
    <tripinfo id="westEastTop.23" depart="108.00" departLane="westJunction_1" departPos="5.10" departSpeed="4.07" departDelay="7.81" arrival="220.00" arrivalLane="junctionEast_1" arrivalPos="492.80" arrivalSpeed="21.39" duration="112.00" routeLength="994.90" waitingTime="0.00" waitingCount="0" stopTime="0.00" timeLoss="67.00" rerouteNo="0" devices="tripinfo_westEastTop.23 ssm_westEastTop.23" vType="carCustom" speedFactor="1.03" vaporized=""/>
    <tripinfo id="southNorth.4" depart="108.00" departLane="southJunction_1" departPos="5.10" departSpeed="7.94" departDelay="1.07" arrival="220.00" arrivalLane="junctionNorth_0" arrivalPos="492.80" arrivalSpeed="21.05" duration="112.00" routeLength="995.01" waitingTime="32.00" waitingCount="2" stopTime="0.00" timeLoss="66.66" rerouteNo="0" devices="tripinfo_southNorth.4 ssm_southNorth.4" vType="carCustom" speedFactor="1.16" vaporized=""/>
    <tripinfo id="southEast.13" depart="154.00" departLane="southJunction_0" departPos="5.10" departSpeed="19.90" departDelay="0.79" arrival="224.00" arrivalLane="junctionEast_0" arrivalPos="492.80" arrivalSpeed="20.95" duration="70.00" routeLength="989.53" waitingTime="0.00" waitingCount="0" stopTime="0.00" timeLoss="24.69" rerouteNo="0" devices="tripinfo_southEast.13 ssm_southEast.13" vType="carCustom" speedFactor="0.99" vaporized=""/>
    <tripinfo id="westEastTop.24" depart="112.00" departLane="westJunction_1" departPos="5.10" departSpeed="3.73" departDelay="9.11" arrival="226.00" arrivalLane="junctionEast_1" arrivalPos="492.80" arrivalSpeed="21.63" duration="114.00" routeLength="994.90" waitingTime="0.00" waitingCount="0" stopTime="0.00" timeLoss="68.84" rerouteNo="0" devices="tripinfo_westEastTop.24 ssm_westEastTop.24" vType="carCustom" speedFactor="0.92" vaporized=""/>
    <tripinfo id="southEast.14" depart="157.00" departLane="southJunction_0" departPos="5.10" departSpeed="19.98" departDelay="0.09" arrival="230.00" arrivalLane="junctionEast_0" arrivalPos="492.80" arrivalSpeed="21.48" duration="73.00" routeLength="989.53" waitingTime="0.00" waitingCount="0" stopTime="0.00" timeLoss="27.32" rerouteNo="0" devices="tripinfo_southEast.14 ssm_southEast.14" vType="carCustom" speedFactor="1.07" vaporized=""/>
    <tripinfo id="westEastTop.25" depart="117.00" departLane="westJunction_1" departPos="5.10" departSpeed="3.85" departDelay="8.55" arrival="232.00" arrivalLane="junctionEast_1" arrivalPos="492.80" arrivalSpeed="21.05" duration="115.00" routeLength="994.90" waitingTime="0.00" waitingCount="0" stopTime="0.00" timeLoss="69.47" rerouteNo="0" devices="tripinfo_westEastTop.25 ssm_westEastTop.25" vType="carCustom" speedFactor="0.92" vaporized=""/>
    <tripinfo id="southNorth.5" depart="134.00" departLane="southJunction_1" departPos="5.10" departSpeed="13.73" departDelay="0.53" arrival="235.00" arrivalLane="junctionNorth_0" arrivalPos="492.80" arrivalSpeed="21.21" duration="101.00" routeLength="995.01" waitingTime="26.00" waitingCount="3" stopTime="0.00" timeLoss="55.29" rerouteNo="0" devices="tripinfo_southNorth.5 ssm_southNorth.5" vType="carCustom" speedFactor="0.94" vaporized=""/>
    <tripinfo id="westEastBottom0.13" depart="157.00" departLane="westJunction_0" departPos="5.10" departSpeed="19.94" departDelay="0.83" arrival="236.00" arrivalLane="junctionEast_0" arrivalPos="492.80" arrivalSpeed="21.40" duration="79.00" routeLength="994.90" waitingTime="1.00" waitingCount="1" stopTime="0.00" timeLoss="33.37" rerouteNo="0" devices="tripinfo_westEastBottom0.13 ssm_westEastBottom0.13" vType="carCustom" speedFactor="1.09" vaporized=""/>
    <tripinfo id="westEastTop.26" depart="121.00" departLane="westJunction_1" departPos="5.10" departSpeed="3.79" departDelay="9.04" arrival="237.00" arrivalLane="junctionEast_1" arrivalPos="492.80" arrivalSpeed="21.86" duration="116.00" routeLength="994.90" waitingTime="0.00" waitingCount="0" stopTime="0.00" timeLoss="71.10" rerouteNo="0" devices="tripinfo_westEastTop.26 ssm_westEastTop.26" vType="carCustom" speedFactor="0.87" vaporized=""/>