<?xml version="1.0" encoding="UTF-8"?>

<!-- generated on 2025-04-29 10:11:21 by Eclipse SUMO sumo Version 1.20.0
<configuration xmlns:xsi="http://www.w3.org/2001/XMLSchema-instance" xsi:noNamespaceSchemaLocation="http://sumo.dlr.de/xsd/sumoConfiguration.xsd">

    <input>
        <net-file value="nets/2lane_unprotected_right/2lane_unprotected_right.net.xml"/>
        <route-files value="nets/2lane_unprotected_right/2lane_unprotected_right.rou.xml"/>
    </input>

    <output>
        <tripinfo-output value="traces/transs50f1_s50_f0.5_random/0250_tripinfo.xml"/>
        <collision-output value="traces/transs50f1_s50_f0.5_random/0250_collisions.xml"/>
        <statistic-output value="traces/transs50f1_s50_f0.5_random/0250_statistics.xml"/>
    </output>

    <processing>
        <collision.action value="teleport"/>
        <collision.check-junctions value="true"/>
        <time-to-teleport value="-1"/>
        <waiting-time-memory value="1000"/>
        <max-depart-delay value="-1"/>
        <default.speeddev value="0.1"/>
    </processing>

    <report>
        <no-warnings value="true"/>
    </report>

    <ssm_device>
        <device.ssm.probability value="1.0"/>
        <device.ssm.measures value="BR"/>
        <device.ssm.file value="/Users/finn/Code/CausalKnowledgeTransfer-4-SafeRL/traces/transs50f1_s50_f0.5_random/0250_ssm.xml"/>
    </ssm_device>

    <traci_server>
        <remote-port value="65500"/>
    </traci_server>

    <random_number>
        <random value="true"/>
    </random_number>

</configuration>
-->

<tripinfos xmlns:xsi="http://www.w3.org/2001/XMLSchema-instance" xsi:noNamespaceSchemaLocation="http://sumo.dlr.de/xsd/tripinfo_file.xsd">
    <tripinfo id="westEastBottom0.0" depart="3.00" departLane="westJunction_0" departPos="5.10" departSpeed="27.78" departDelay="0.37" arrival="40.00" arrivalLane="junctionEast_0" arrivalPos="492.80" arrivalSpeed="27.23" duration="37.00" routeLength="994.90" waitingTime="0.00" waitingCount="0" stopTime="0.00" timeLoss="0.86" rerouteNo="0" devices="tripinfo_westEastBottom0.0 ssm_westEastBottom0.0" vType="carCustom" speedFactor="0.91" vaporized=""/>
    <tripinfo id="westEastTop.0" depart="8.00" departLane="westJunction_1" departPos="5.10" departSpeed="25.68" departDelay="0.27" arrival="45.00" arrivalLane="junctionEast_1" arrivalPos="492.80" arrivalSpeed="27.07" duration="37.00" routeLength="994.90" waitingTime="0.00" waitingCount="0" stopTime="0.00" timeLoss="0.86" rerouteNo="0" devices="tripinfo_westEastTop.0 ssm_westEastTop.0" vType="carCustom" speedFactor="0.95" vaporized=""/>
    <tripinfo id="westEastTop.1" depart="13.00" departLane="westJunction_1" departPos="5.10" departSpeed="27.62" departDelay="0.90" arrival="58.00" arrivalLane="junctionEast_1" arrivalPos="492.80" arrivalSpeed="26.67" duration="45.00" routeLength="994.90" waitingTime="0.00" waitingCount="0" stopTime="0.00" timeLoss="8.62" rerouteNo="0" devices="tripinfo_westEastTop.1 ssm_westEastTop.1" vType="carCustom" speedFactor="1.13" vaporized=""/>
    <tripinfo id="westEastBottom0.1" depart="17.00" departLane="westJunction_0" departPos="5.10" departSpeed="27.11" departDelay="0.11" arrival="60.00" arrivalLane="junctionEast_0" arrivalPos="492.80" arrivalSpeed="27.16" duration="43.00" routeLength="994.90" waitingTime="0.00" waitingCount="0" stopTime="0.00" timeLoss="6.34" rerouteNo="0" devices="tripinfo_westEastBottom0.1 ssm_westEastBottom0.1" vType="carCustom" speedFactor="0.95" vaporized=""/>
    <tripinfo id="westEastTop.2" depart="15.00" departLane="westJunction_1" departPos="5.10" departSpeed="24.84" departDelay="2.77" arrival="69.00" arrivalLane="junctionEast_1" arrivalPos="492.80" arrivalSpeed="27.50" duration="54.00" routeLength="994.90" waitingTime="0.00" waitingCount="0" stopTime="0.00" timeLoss="18.01" rerouteNo="0" devices="tripinfo_westEastTop.2 ssm_westEastTop.2" vType="carCustom" speedFactor="0.71" vaporized=""/>
    <tripinfo id="southEast.0" depart="17.00" departLane="southJunction_0" departPos="5.10" departSpeed="25.68" departDelay="0.98" arrival="69.00" arrivalLane="junctionEast_0" arrivalPos="492.80" arrivalSpeed="27.03" duration="52.00" routeLength="989.53" waitingTime="0.00" waitingCount="0" stopTime="0.00" timeLoss="15.14" rerouteNo="0" devices="tripinfo_southEast.0 ssm_southEast.0" vType="carCustom" speedFactor="1.00" vaporized=""/>
    <tripinfo id="southNorth.0" depart="4.00" departLane="southJunction_1" departPos="5.10" departSpeed="25.68" departDelay="0.52" arrival="72.00" arrivalLane="junctionNorth_0" arrivalPos="492.80" arrivalSpeed="27.04" duration="68.00" routeLength="995.01" waitingTime="15.00" waitingCount="1" stopTime="0.00" timeLoss="31.94" rerouteNo="0" devices="tripinfo_southNorth.0 ssm_southNorth.0" vType="carCustom" speedFactor="0.93" vaporized=""/>
    <tripinfo id="westEastTop.3" depart="17.00" departLane="westJunction_1" departPos="5.10" departSpeed="22.06" departDelay="2.49" arrival="80.00" arrivalLane="junctionEast_1" arrivalPos="492.80" arrivalSpeed="26.55" duration="63.00" routeLength="994.90" waitingTime="0.00" waitingCount="0" stopTime="0.00" timeLoss="26.27" rerouteNo="0" devices="tripinfo_westEastTop.3 ssm_westEastTop.3" vType="carCustom" speedFactor="1.16" vaporized=""/>
    <tripinfo id="southEast.1" depart="23.00" departLane="southJunction_0" departPos="5.10" departSpeed="24.05" departDelay="0.35" arrival="82.00" arrivalLane="junctionEast_0" arrivalPos="492.80" arrivalSpeed="27.44" duration="59.00" routeLength="989.53" waitingTime="0.00" waitingCount="0" stopTime="0.00" timeLoss="22.20" rerouteNo="0" devices="tripinfo_southEast.1 ssm_southEast.1" vType="carCustom" speedFactor="1.07" vaporized=""/>
    <tripinfo id="southNorth.1" depart="14.00" departLane="southJunction_1" departPos="5.10" departSpeed="25.23" departDelay="1.61" arrival="84.00" arrivalLane="junctionNorth_0" arrivalPos="492.80" arrivalSpeed="27.15" duration="70.00" routeLength="995.01" waitingTime="4.00" waitingCount="1" stopTime="0.00" timeLoss="33.77" rerouteNo="0" devices="tripinfo_southNorth.1 ssm_southNorth.1" vType="carCustom" speedFactor="0.83" vaporized=""/>
    <tripinfo id="westEastBottom0.2" depart="36.00" departLane="westJunction_0" departPos="5.10" departSpeed="21.86" departDelay="0.75" arrival="89.00" arrivalLane="junctionEast_1" arrivalPos="492.80" arrivalSpeed="26.89" duration="53.00" routeLength="994.90" waitingTime="0.00" waitingCount="0" stopTime="0.00" timeLoss="16.98" rerouteNo="0" devices="tripinfo_westEastBottom0.2 ssm_westEastBottom0.2" vType="carCustom" speedFactor="1.01" vaporized=""/>
    <tripinfo id="southEast.2" depart="26.00" departLane="southJunction_0" departPos="5.10" departSpeed="19.96" departDelay="0.62" arrival="95.00" arrivalLane="junctionEast_0" arrivalPos="492.80" arrivalSpeed="27.73" duration="69.00" routeLength="989.53" waitingTime="0.00" waitingCount="0" stopTime="0.00" timeLoss="31.02" rerouteNo="0" devices="tripinfo_southEast.2 ssm_southEast.2" vType="carCustom" speedFactor="0.96" vaporized=""/>
    <tripinfo id="westEastTop.4" depart="19.00" departLane="westJunction_1" departPos="5.10" departSpeed="19.29" departDelay="0.57" arrival="98.00" arrivalLane="junctionEast_1" arrivalPos="492.80" arrivalSpeed="27.31" duration="79.00" routeLength="994.90" waitingTime="0.00" waitingCount="0" stopTime="0.00" timeLoss="42.75" rerouteNo="0" devices="tripinfo_westEastTop.4 ssm_westEastTop.4" vType="carCustom" speedFactor="1.03" vaporized=""/>
    <tripinfo id="westEastBottom0.3" depart="43.00" departLane="westJunction_0" departPos="5.10" departSpeed="19.69" departDelay="0.99" arrival="106.00" arrivalLane="junctionEast_1" arrivalPos="492.80" arrivalSpeed="26.79" duration="63.00" routeLength="994.90" waitingTime="0.00" waitingCount="0" stopTime="0.00" timeLoss="26.79" rerouteNo="0" devices="tripinfo_westEastBottom0.3 ssm_westEastBottom0.3" vType="carCustom" speedFactor="1.08" vaporized=""/>
    <tripinfo id="southNorth.2" depart="16.00" departLane="southJunction_1" departPos="5.10" departSpeed="23.01" departDelay="2.20" arrival="107.00" arrivalLane="junctionNorth_0" arrivalPos="492.80" arrivalSpeed="27.67" duration="91.00" routeLength="995.01" waitingTime="16.00" waitingCount="1" stopTime="0.00" timeLoss="54.79" rerouteNo="0" devices="tripinfo_southNorth.2 ssm_southNorth.2" vType="carCustom" speedFactor="0.92" vaporized=""/>
    <tripinfo id="southEast.3" depart="28.00" departLane="southJunction_0" departPos="5.10" departSpeed="17.18" departDelay="1.01" arrival="107.00" arrivalLane="junctionEast_0" arrivalPos="492.80" arrivalSpeed="27.63" duration="79.00" routeLength="989.53" waitingTime="0.00" waitingCount="0" stopTime="0.00" timeLoss="41.89" rerouteNo="0" devices="tripinfo_southEast.3 ssm_southEast.3" vType="carCustom" speedFactor="1.00" vaporized=""/>
    <tripinfo id="westEastTop.5" depart="21.00" departLane="westJunction_1" departPos="5.10" departSpeed="16.51" departDelay="0.87" arrival="114.00" arrivalLane="junctionEast_1" arrivalPos="492.80" arrivalSpeed="26.79" duration="93.00" routeLength="994.90" waitingTime="0.00" waitingCount="0" stopTime="0.00" timeLoss="56.79" rerouteNo="0" devices="tripinfo_westEastTop.5 ssm_westEastTop.5" vType="carCustom" speedFactor="0.90" vaporized=""/>
    <tripinfo id="southNorth.3" depart="25.00" departLane="southJunction_1" departPos="5.10" departSpeed="11.25" departDelay="0.64" arrival="116.00" arrivalLane="junctionNorth_0" arrivalPos="492.80" arrivalSpeed="26.67" duration="91.00" routeLength="995.01" waitingTime="4.00" waitingCount="1" stopTime="0.00" timeLoss="54.69" rerouteNo="0" devices="tripinfo_southNorth.3 ssm_southNorth.3" vType="carCustom" speedFactor="0.96" vaporized=""/>
    <tripinfo id="westEastBottom0.4" depart="48.00" departLane="westJunction_0" departPos="5.10" departSpeed="14.79" departDelay="0.32" arrival="116.00" arrivalLane="junctionEast_0" arrivalPos="492.80" arrivalSpeed="27.64" duration="68.00" routeLength="994.90" waitingTime="2.00" waitingCount="1" stopTime="0.00" timeLoss="31.68" rerouteNo="0" devices="tripinfo_westEastBottom0.4 ssm_westEastBottom0.4" vType="carCustom" speedFactor="1.19" vaporized=""/>
    <tripinfo id="westEastTop.6" depart="23.00" departLane="westJunction_1" departPos="5.10" departSpeed="13.73" departDelay="1.29" arrival="122.00" arrivalLane="junctionEast_1" arrivalPos="492.80" arrivalSpeed="27.52" duration="99.00" routeLength="994.90" waitingTime="0.00" waitingCount="0" stopTime="0.00" timeLoss="62.86" rerouteNo="0" devices="tripinfo_westEastTop.6 ssm_westEastTop.6" vType="carCustom" speedFactor="0.93" vaporized=""/>
    <tripinfo id="southEast.4" depart="36.00" departLane="southJunction_0" departPos="5.10" departSpeed="7.05" departDelay="0.62" arrival="125.00" arrivalLane="junctionEast_0" arrivalPos="492.80" arrivalSpeed="27.23" duration="89.00" routeLength="989.53" waitingTime="4.00" waitingCount="1" stopTime="0.00" timeLoss="51.79" rerouteNo="0" devices="tripinfo_southEast.4 ssm_southEast.4" vType="carCustom" speedFactor="1.01" vaporized=""/>
    <tripinfo id="westEastBottom0.7" depart="74.00" departLane="westJunction_0" departPos="5.10" departSpeed="16.07" departDelay="0.44" arrival="125.00" arrivalLane="junctionEast_0" arrivalPos="492.80" arrivalSpeed="7.65" duration="51.00" routeLength="994.90" waitingTime="0.00" waitingCount="0" stopTime="0.00" timeLoss="32.86" rerouteNo="0" devices="tripinfo_westEastBottom0.7 ssm_westEastBottom0.7" vType="carCustom" speedFactor="0.93" vaporized="teleport"/>
    <tripinfo id="westEastTop.7" depart="27.00" departLane="westJunction_1" departPos="5.10" departSpeed="8.18" departDelay="0.99" arrival="130.00" arrivalLane="junctionEast_1" arrivalPos="492.80" arrivalSpeed="26.99" duration="103.00" routeLength="994.90" waitingTime="0.00" waitingCount="0" stopTime="0.00" timeLoss="66.97" rerouteNo="0" devices="tripinfo_westEastTop.7 ssm_westEastTop.7" vType="carCustom" speedFactor="1.01" vaporized=""/>
    <tripinfo id="southEast.5" depart="58.00" departLane="southJunction_0" departPos="5.10" departSpeed="9.81" departDelay="0.72" arrival="133.00" arrivalLane="junctionEast_0" arrivalPos="492.80" arrivalSpeed="26.97" duration="75.00" routeLength="989.53" waitingTime="0.00" waitingCount="0" stopTime="0.00" timeLoss="37.35" rerouteNo="0" devices="tripinfo_southEast.5 ssm_southEast.5" vType="carCustom" speedFactor="0.99" vaporized=""/>
    <tripinfo id="westEastTop.8" depart="30.00" departLane="westJunction_1" departPos="5.10" departSpeed="5.81" departDelay="2.40" arrival="138.00" arrivalLane="junctionEast_1" arrivalPos="492.80" arrivalSpeed="27.37" duration="108.00" routeLength="994.90" waitingTime="0.00" waitingCount="0" stopTime="0.00" timeLoss="71.67" rerouteNo="0" devices="tripinfo_westEastTop.8 ssm_westEastTop.8" vType="carCustom" speedFactor="0.99" vaporized=""/>
    <tripinfo id="westEastBottom0.5" depart="70.00" departLane="westJunction_0" departPos="5.10" departSpeed="14.28" departDelay="0.49" arrival="141.00" arrivalLane="junctionEast_0" arrivalPos="492.80" arrivalSpeed="26.89" duration="71.00" routeLength="994.90" waitingTime="0.00" waitingCount="0" stopTime="0.00" timeLoss="34.52" rerouteNo="0" devices="tripinfo_westEastBottom0.5 ssm_westEastBottom0.5" vType="carCustom" speedFactor="0.99" vaporized=""/>
    <tripinfo id="westEastTop.9" depart="33.00" departLane="westJunction_1" departPos="5.10" departSpeed="4.13" departDelay="3.38" arrival="146.00" arrivalLane="junctionEast_1" arrivalPos="492.80" arrivalSpeed="26.86" duration="113.00" routeLength="994.90" waitingTime="0.00" waitingCount="0" stopTime="0.00" timeLoss="76.63" rerouteNo="0" devices="tripinfo_westEastTop.9 ssm_westEastTop.9" vType="carCustom" speedFactor="1.07" vaporized=""/>
    <tripinfo id="southEast.7" depart="63.00" departLane="southJunction_0" departPos="5.10" departSpeed="9.33" departDelay="0.89" arrival="149.00" arrivalLane="junctionEast_0" arrivalPos="492.80" arrivalSpeed="26.83" duration="86.00" routeLength="989.53" waitingTime="0.00" waitingCount="0" stopTime="0.00" timeLoss="48.63" rerouteNo="0" devices="tripinfo_southEast.7 ssm_southEast.7" vType="carCustom" speedFactor="0.93" vaporized=""/>
    <tripinfo id="westEastBottom0.6" depart="72.00" departLane="westJunction_0" departPos="5.10" departSpeed="18.84" departDelay="0.73" arrival="154.00" arrivalLane="junctionEast_1" arrivalPos="492.80" arrivalSpeed="26.56" duration="82.00" routeLength="994.90" waitingTime="0.00" waitingCount="0" stopTime="0.00" timeLoss="45.40" rerouteNo="0" devices="tripinfo_westEastBottom0.6 ssm_westEastBottom0.6" vType="carCustom" speedFactor="1.00" vaporized=""/>
    <tripinfo id="southEast.6" depart="60.00" departLane="southJunction_0" departPos="5.10" departSpeed="13.33" departDelay="0.80" arrival="156.00" arrivalLane="junctionEast_0" arrivalPos="492.80" arrivalSpeed="26.84" duration="96.00" routeLength="989.53" waitingTime="0.00" waitingCount="0" stopTime="0.00" timeLoss="59.63" rerouteNo="0" devices="tripinfo_southEast.6 ssm_southEast.6" vType="carCustom" speedFactor="1.00" vaporized=""/>
    <tripinfo id="westEastTop.10" depart="42.00" departLane="westJunction_1" departPos="5.10" departSpeed="4.24" departDelay="0.54" arrival="161.00" arrivalLane="junctionEast_1" arrivalPos="492.80" arrivalSpeed="26.64" duration="119.00" routeLength="994.90" waitingTime="0.00" waitingCount="0" stopTime="0.00" timeLoss="83.06" rerouteNo="0" devices="tripinfo_westEastTop.10 ssm_westEastTop.10" vType="carCustom" speedFactor="0.99" vaporized=""/>
    <tripinfo id="southEast.8" depart="71.00" departLane="southJunction_0" departPos="5.10" departSpeed="10.52" departDelay="0.62" arrival="164.00" arrivalLane="junctionEast_0" arrivalPos="492.80" arrivalSpeed="27.77" duration="93.00" routeLength="989.53" waitingTime="0.00" waitingCount="0" stopTime="0.00" timeLoss="55.20" rerouteNo="0" devices="tripinfo_southEast.8 ssm_southEast.8" vType="carCustom" speedFactor="0.91" vaporized=""/>
    <tripinfo id="southNorth.4" depart="27.00" departLane="southJunction_1" departPos="5.10" departSpeed="12.64" departDelay="1.88" arrival="165.00" arrivalLane="junctionNorth_0" arrivalPos="492.80" arrivalSpeed="26.73" duration="138.00" routeLength="995.01" waitingTime="48.00" waitingCount="1" stopTime="0.00" timeLoss="101.58" rerouteNo="0" devices="tripinfo_southNorth.4 ssm_southNorth.4" vType="carCustom" speedFactor="0.98" vaporized=""/>
    <tripinfo id="southEast.14" depart="90.00" departLane="southJunction_0" departPos="5.10" departSpeed="5.66" departDelay="2.69" arrival="168.00" arrivalLane="junctionEast_0" arrivalPos="492.80" arrivalSpeed="3.80" duration="78.00" routeLength="989.53" waitingTime="0.00" waitingCount="0" stopTime="0.00" timeLoss="58.91" rerouteNo="0" devices="tripinfo_southEast.14 ssm_southEast.14" vType="carCustom" speedFactor="1.08" vaporized="teleport"/>
    <tripinfo id="westEastTop.11" depart="56.00" departLane="westJunction_1" departPos="5.10" departSpeed="4.74" departDelay="0.94" arrival="169.00" arrivalLane="junctionEast_1" arrivalPos="492.80" arrivalSpeed="27.56" duration="113.00" routeLength="994.90" waitingTime="0.00" waitingCount="0" stopTime="0.00" timeLoss="76.63" rerouteNo="0" devices="tripinfo_westEastTop.11 ssm_westEastTop.11" vType="carCustom" speedFactor="0.85" vaporized=""/>
    <tripinfo id="southEast.10" depart="80.00" departLane="southJunction_0" departPos="5.10" departSpeed="9.99" departDelay="1.27" arrival="171.00" arrivalLane="junctionEast_0" arrivalPos="492.80" arrivalSpeed="27.32" duration="91.00" routeLength="989.53" waitingTime="0.00" waitingCount="0" stopTime="0.00" timeLoss="53.43" rerouteNo="0" devices="tripinfo_southEast.10 ssm_southEast.10" vType="carCustom" speedFactor="0.91" vaporized=""/>
    <tripinfo id="westEastBottom0.8" depart="81.00" departLane="westJunction_0" departPos="5.10" departSpeed="6.84" departDelay="0.25" arrival="176.00" arrivalLane="junctionEast_1" arrivalPos="492.80" arrivalSpeed="26.72" duration="95.00" routeLength="994.90" waitingTime="0.00" waitingCount="0" stopTime="0.00" timeLoss="59.07" rerouteNo="0" devices="tripinfo_westEastBottom0.8 ssm_westEastBottom0.8" vType="carCustom" speedFactor="0.76" vaporized=""/>
    <tripinfo id="southNorth.5" depart="70.00" departLane="southJunction_1" departPos="5.10" departSpeed="20.44" departDelay="0.64" arrival="177.00" arrivalLane="junctionNorth_0" arrivalPos="492.80" arrivalSpeed="27.26" duration="107.00" routeLength="995.01" waitingTime="30.00" waitingCount="2" stopTime="0.00" timeLoss="71.05" rerouteNo="0" devices="tripinfo_southNorth.5 ssm_southNorth.5" vType="carCustom" speedFactor="0.95" vaporized=""/>
    <tripinfo id="southEast.9" depart="78.00" departLane="southJunction_0" departPos="5.10" departSpeed="10.98" departDelay="0.05" arrival="179.00" arrivalLane="junctionEast_0" arrivalPos="492.80" arrivalSpeed="26.62" duration="101.00" routeLength="989.53" waitingTime="0.00" waitingCount="0" stopTime="0.00" timeLoss="63.79" rerouteNo="0" devices="tripinfo_southEast.9 ssm_southEast.9" vType="carCustom" speedFactor="0.90" vaporized=""/>
    <tripinfo id="westEastTop.12" depart="66.00" departLane="westJunction_1" departPos="5.10" departSpeed="7.12" departDelay="0.19" arrival="184.00" arrivalLane="junctionEast_1" arrivalPos="492.80" arrivalSpeed="27.19" duration="118.00" routeLength="994.90" waitingTime="0.00" waitingCount="0" stopTime="0.00" timeLoss="81.33" rerouteNo="0" devices="tripinfo_westEastTop.12 ssm_westEastTop.12" vType="carCustom" speedFactor="1.02" vaporized=""/>
    <tripinfo id="southEast.12" depart="85.00" departLane="southJunction_0" departPos="5.10" departSpeed="7.49" departDelay="1.01" arrival="186.00" arrivalLane="junctionEast_0" arrivalPos="492.80" arrivalSpeed="27.01" duration="101.00" routeLength="989.53" waitingTime="0.00" waitingCount="0" stopTime="0.00" timeLoss="63.68" rerouteNo="0" devices="tripinfo_southEast.12 ssm_southEast.12" vType="carCustom" speedFactor="1.06" vaporized=""/>
    <tripinfo id="southEast.17" depart="116.00" departLane="southJunction_0" departPos="5.10" departSpeed="5.46" departDelay="0.50" arrival="188.00" arrivalLane="junctionEast_0" arrivalPos="492.80" arrivalSpeed="4.81" duration="72.00" routeLength="989.53" waitingTime="0.00" waitingCount="0" stopTime="0.00" timeLoss="52.51" rerouteNo="0" devices="tripinfo_southEast.17 ssm_southEast.17" vType="carCustom" speedFactor="0.97" vaporized="teleport"/>
    <tripinfo id="westEastTop.13" depart="73.00" departLane="westJunction_1" departPos="5.10" departSpeed="7.68" departDelay="0.32" arrival="191.00" arrivalLane="junctionEast_1" arrivalPos="492.80" arrivalSpeed="27.04" duration="118.00" routeLength="994.90" waitingTime="0.00" waitingCount="0" stopTime="0.00" timeLoss="81.66" rerouteNo="0" devices="tripinfo_westEastTop.13 ssm_westEastTop.13" vType="carCustom" speedFactor="1.07" vaporized=""/>
    <tripinfo id="southNorth.6" depart="85.00" departLane="southJunction_1" departPos="5.10" departSpeed="13.83" departDelay="0.11" arrival="191.00" arrivalLane="junctionNorth_0" arrivalPos="492.80" arrivalSpeed="26.86" duration="106.00" routeLength="995.01" waitingTime="16.00" waitingCount="3" stopTime="0.00" timeLoss="69.79" rerouteNo="0" devices="tripinfo_southNorth.6 ssm_southNorth.6" vType="carCustom" speedFactor="1.04" vaporized=""/>
    <tripinfo id="southEast.11" depart="83.00" departLane="southJunction_0" departPos="5.10" departSpeed="9.20" departDelay="0.54" arrival="194.00" arrivalLane="junctionEast_0" arrivalPos="492.80" arrivalSpeed="27.36" duration="111.00" routeLength="989.53" waitingTime="0.00" waitingCount="0" stopTime="0.00" timeLoss="73.88" rerouteNo="0" devices="tripinfo_southEast.11 ssm_southEast.11" vType="carCustom" speedFactor="1.03" vaporized=""/>
    <tripinfo id="westEastTop.14" depart="75.00" departLane="westJunction_1" departPos="5.10" departSpeed="7.92" departDelay="2.03" arrival="198.00" arrivalLane="junctionEast_1" arrivalPos="492.80" arrivalSpeed="27.47" duration="123.00" routeLength="994.90" waitingTime="0.00" waitingCount="0" stopTime="0.00" timeLoss="86.69" rerouteNo="0" devices="tripinfo_westEastTop.14 ssm_westEastTop.14" vType="carCustom" speedFactor="1.06" vaporized=""/>
    <tripinfo id="westEastBottom0.9" depart="119.00" departLane="westJunction_0" departPos="5.10" departSpeed="10.86" departDelay="0.08" arrival="201.00" arrivalLane="junctionEast_0" arrivalPos="492.80" arrivalSpeed="27.52" duration="82.00" routeLength="994.90" waitingTime="0.00" waitingCount="0" stopTime="0.00" timeLoss="45.48" rerouteNo="0" devices="tripinfo_westEastBottom0.9 ssm_westEastBottom0.9" vType="carCustom" speedFactor="1.00" vaporized=""/>
    <tripinfo id="southNorth.7" depart="88.00" departLane="southJunction_1" departPos="5.10" departSpeed="4.02" departDelay="1.69" arrival="202.00" arrivalLane="junctionNorth_0" arrivalPos="492.80" arrivalSpeed="27.21" duration="114.00" routeLength="995.01" waitingTime="8.00" waitingCount="2" stopTime="0.00" timeLoss="77.61" rerouteNo="0" devices="tripinfo_southNorth.7 ssm_southNorth.7" vType="carCustom" speedFactor="1.24" vaporized=""/>
    <tripinfo id="westEastTop.15" depart="84.00" departLane="westJunction_1" departPos="5.10" departSpeed="5.43" departDelay="0.18" arrival="205.00" arrivalLane="junctionEast_1" arrivalPos="492.80" arrivalSpeed="27.22" duration="121.00" routeLength="994.90" waitingTime="0.00" waitingCount="0" stopTime="0.00" timeLoss="85.02" rerouteNo="0" devices="tripinfo_westEastTop.15 ssm_westEastTop.15" vType="carCustom" speedFactor="1.05" vaporized=""/>
    <tripinfo id="southEast.13" depart="87.00" departLane="southJunction_0" departPos="5.10" departSpeed="7.23" departDelay="1.57" arrival="208.00" arrivalLane="junctionEast_0" arrivalPos="492.80" arrivalSpeed="27.51" duration="121.00" routeLength="989.53" waitingTime="0.00" waitingCount="0" stopTime="0.00" timeLoss="83.55" rerouteNo="0" devices="tripinfo_southEast.13 ssm_southEast.13" vType="carCustom" speedFactor="0.80" vaporized=""/>
    <tripinfo id="westEastTop.16" depart="87.00" departLane="westJunction_1" departPos="5.10" departSpeed="6.05" departDelay="2.43" arrival="212.00" arrivalLane="junctionEast_1" arrivalPos="492.80" arrivalSpeed="27.30" duration="125.00" routeLength="994.90" waitingTime="0.00" waitingCount="0" stopTime="0.00" timeLoss="88.79" rerouteNo="0" devices="tripinfo_westEastTop.16 ssm_westEastTop.16" vType="carCustom" speedFactor="1.01" vaporized=""/>
    <tripinfo id="southNorth.8" depart="94.00" departLane="southJunction_1" departPos="5.10" departSpeed="3.87" departDelay="0.33" arrival="212.00" arrivalLane="junctionNorth_0" arrivalPos="492.80" arrivalSpeed="26.75" duration="118.00" routeLength="995.01" waitingTime="9.00" waitingCount="3" stopTime="0.00" timeLoss="81.91" rerouteNo="0" devices="tripinfo_southNorth.8 ssm_southNorth.8" vType="carCustom" speedFactor="1.26" vaporized=""/>
    <tripinfo id="westEastBottom0.10" depart="125.00" departLane="westJunction_0" departPos="5.10" departSpeed="17.61" departDelay="0.52" arrival="215.00" arrivalLane="junctionEast_0" arrivalPos="492.80" arrivalSpeed="27.65" duration="90.00" routeLength="994.90" waitingTime="0.00" waitingCount="0" stopTime="0.00" timeLoss="53.62" rerouteNo="0" devices="tripinfo_westEastBottom0.10 ssm_westEastBottom0.10" vType="carCustom" speedFactor="0.98" vaporized=""/>
    <tripinfo id="westEastTop.17" depart="90.00" departLane="westJunction_1" departPos="5.10" departSpeed="3.79" departDelay="2.26" arrival="219.00" arrivalLane="junctionEast_1" arrivalPos="492.80" arrivalSpeed="27.21" duration="129.00" routeLength="994.90" waitingTime="0.00" waitingCount="0" stopTime="0.00" timeLoss="92.69" rerouteNo="0" devices="tripinfo_westEastTop.17 ssm_westEastTop.17" vType="carCustom" speedFactor="0.97" vaporized=""/>
    <tripinfo id="westEastBottom0.15" depart="175.00" departLane="westJunction_0" departPos="5.10" departSpeed="10.21" departDelay="0.70" arrival="219.00" arrivalLane="junctionEast_0" arrivalPos="492.80" arrivalSpeed="5.17" duration="44.00" routeLength="994.90" waitingTime="0.00" waitingCount="0" stopTime="0.00" timeLoss="25.87" rerouteNo="0" devices="tripinfo_westEastBottom0.15 ssm_westEastBottom0.15" vType="carCustom" speedFactor="0.93" vaporized="teleport"/>
    <tripinfo id="southEast.15" depart="93.00" departLane="southJunction_0" departPos="5.10" departSpeed="3.47" departDelay="3.81" arrival="222.00" arrivalLane="junctionEast_0" arrivalPos="492.80" arrivalSpeed="27.53" duration="129.00" routeLength="989.53" waitingTime="0.00" waitingCount="0" stopTime="0.00" timeLoss="92.17" rerouteNo="0" devices="tripinfo_southEast.15 ssm_southEast.15" vType="carCustom" speedFactor="0.95" vaporized=""/>
    <tripinfo id="southNorth.9" depart="98.00" departLane="southJunction_1" departPos="5.10" departSpeed="3.47" departDelay="4.24" arrival="225.00" arrivalLane="junctionNorth_0" arrivalPos="492.80" arrivalSpeed="27.02" duration="127.00" routeLength="995.01" waitingTime="9.00" waitingCount="2" stopTime="0.00" timeLoss="90.36" rerouteNo="0" devices="tripinfo_southNorth.9 ssm_southNorth.9" vType="carCustom" speedFactor="1.01" vaporized=""/>
    <tripinfo id="westEastBottom0.11" depart="132.00" departLane="westJunction_0" departPos="5.10" departSpeed="12.44" departDelay="0.90" arrival="226.00" arrivalLane="junctionEast_1" arrivalPos="492.80" arrivalSpeed="26.70" duration="94.00" routeLength="994.90" waitingTime="0.00" waitingCount="0" stopTime="0.00" timeLoss="57.87" rerouteNo="0" devices="tripinfo_westEastBottom0.11 ssm_westEastBottom0.11" vType="carCustom" speedFactor="0.97" vaporized=""/>
    <tripinfo id="southEast.16" depart="104.00" departLane="southJunction_0" departPos="5.10" departSpeed="4.76" departDelay="0.18" arrival="229.00" arrivalLane="junctionEast_0" arrivalPos="492.80" arrivalSpeed="27.01" duration="125.00" routeLength="989.53" waitingTime="0.00" waitingCount="0" stopTime="0.00" timeLoss="88.22" rerouteNo="0" devices="tripinfo_southEast.16 ssm_southEast.16" vType="carCustom" speedFactor="1.03" vaporized=""/>
    <tripinfo id="westEastTop.18" depart="95.00" departLane="westJunction_1" departPos="5.10" departSpeed="3.40" departDelay="5.96" arrival="233.00" arrivalLane="junctionEast_1" arrivalPos="492.80" arrivalSpeed="27.34" duration="138.00" routeLength="994.90" waitingTime="0.00" waitingCount="0" stopTime="0.00" timeLoss="101.69" rerouteNo="0" devices="tripinfo_westEastTop.18 ssm_westEastTop.18" vType="carCustom" speedFactor="0.85" vaporized=""/>
    <tripinfo id="westEastBottom0.16" depart="198.00" departLane="westJunction_0" departPos="5.10" departSpeed="12.62" departDelay="0.09" arrival="235.00" arrivalLane="junctionEast_0" arrivalPos="492.80" arrivalSpeed="7.13" duration="37.00" routeLength="994.90" waitingTime="0.00" waitingCount="0" stopTime="0.00" timeLoss="18.82" rerouteNo="0" devices="tripinfo_westEastBottom0.16 ssm_westEastBottom0.16" vType="carCustom" speedFactor="0.74" vaporized="teleport"/>
    <tripinfo id="westEastBottom0.12" depart="140.00" departLane="westJunction_0" departPos="5.10" departSpeed="11.76" departDelay="0.26" arrival="236.00" arrivalLane="junctionEast_0" arrivalPos="492.80" arrivalSpeed="27.33" duration="96.00" routeLength="994.90" waitingTime="0.00" waitingCount="0" stopTime="0.00" timeLoss="59.57" rerouteNo="0" devices="tripinfo_westEastBottom0.12 ssm_westEastBottom0.12" vType="carCustom" speedFactor="0.98" vaporized=""/>
    <tripinfo id="westEastTop.19" depart="100.00" departLane="westJunction_1" departPos="5.10" departSpeed="2.97" departDelay="3.91" arrival="240.00" arrivalLane="junctionEast_1" arrivalPos="492.80" arrivalSpeed="26.87" duration="140.00" routeLength="994.90" waitingTime="1.00" waitingCount="1" stopTime="0.00" timeLoss="103.49" rerouteNo="0" devices="tripinfo_westEastTop.19 ssm_westEastTop.19" vType="carCustom" speedFactor="0.92" vaporized=""/>