<?xml version="1.0" encoding="UTF-8"?>

<!-- generated on 2025-04-29 10:16:11 by Eclipse SUMO sumo Version 1.20.0
<configuration xmlns:xsi="http://www.w3.org/2001/XMLSchema-instance" xsi:noNamespaceSchemaLocation="http://sumo.dlr.de/xsd/sumoConfiguration.xsd">

    <input>
        <net-file value="nets/2lane_unprotected_right/2lane_unprotected_right.net.xml"/>
        <route-files value="nets/2lane_unprotected_right/2lane_unprotected_right.rou.xml"/>
    </input>

    <output>
        <tripinfo-output value="traces/transs50f1_s50_f0.5_random/0255_tripinfo.xml"/>
        <collision-output value="traces/transs50f1_s50_f0.5_random/0255_collisions.xml"/>
        <statistic-output value="traces/transs50f1_s50_f0.5_random/0255_statistics.xml"/>
    </output>

    <processing>
        <collision.action value="teleport"/>
        <collision.check-junctions value="true"/>
        <time-to-teleport value="-1"/>
        <waiting-time-memory value="1000"/>
        <max-depart-delay value="-1"/>
        <default.speeddev value="0.1"/>
    </processing>

    <report>
        <no-warnings value="true"/>
    </report>

    <ssm_device>
        <device.ssm.probability value="1.0"/>
        <device.ssm.measures value="BR"/>
        <device.ssm.file value="/Users/finn/Code/CausalKnowledgeTransfer-4-SafeRL/traces/transs50f1_s50_f0.5_random/0255_ssm.xml"/>
    </ssm_device>

    <traci_server>
        <remote-port value="49176"/>
    </traci_server>

    <random_number>
        <random value="true"/>
    </random_number>

</configuration>
-->

<tripinfos xmlns:xsi="http://www.w3.org/2001/XMLSchema-instance" xsi:noNamespaceSchemaLocation="http://sumo.dlr.de/xsd/tripinfo_file.xsd">
    <tripinfo id="westEastBottom0.0" depart="4.00" departLane="westJunction_0" departPos="5.10" departSpeed="27.78" departDelay="0.27" arrival="41.00" arrivalLane="junctionEast_0" arrivalPos="492.80" arrivalSpeed="27.10" duration="37.00" routeLength="994.90" waitingTime="0.00" waitingCount="0" stopTime="0.00" timeLoss="0.88" rerouteNo="0" devices="tripinfo_westEastBottom0.0 ssm_westEastBottom0.0" vType="carCustom" speedFactor="0.96" vaporized=""/>
    <tripinfo id="westEastTop.0" depart="8.00" departLane="westJunction_1" departPos="5.10" departSpeed="27.78" departDelay="0.21" arrival="55.00" arrivalLane="junctionEast_1" arrivalPos="492.80" arrivalSpeed="27.62" duration="47.00" routeLength="994.90" waitingTime="5.00" waitingCount="1" stopTime="0.00" timeLoss="10.67" rerouteNo="0" devices="tripinfo_westEastTop.0 ssm_westEastTop.0" vType="carCustom" speedFactor="0.90" vaporized=""/>
    <tripinfo id="southEast.0" depart="10.00" departLane="southJunction_0" departPos="5.10" departSpeed="27.78" departDelay="0.65" arrival="60.00" arrivalLane="junctionEast_0" arrivalPos="492.80" arrivalSpeed="27.03" duration="50.00" routeLength="989.53" waitingTime="4.00" waitingCount="1" stopTime="0.00" timeLoss="12.98" rerouteNo="0" devices="tripinfo_southEast.0 ssm_southEast.0" vType="carCustom" speedFactor="1.05" vaporized=""/>
    <tripinfo id="southNorth.0" depart="17.00" departLane="southJunction_1" departPos="5.10" departSpeed="27.78" departDelay="0.43" arrival="65.00" arrivalLane="junctionNorth_0" arrivalPos="492.80" arrivalSpeed="27.43" duration="48.00" routeLength="995.01" waitingTime="4.00" waitingCount="1" stopTime="0.00" timeLoss="11.23" rerouteNo="0" devices="tripinfo_southNorth.0 ssm_southNorth.0" vType="carCustom" speedFactor="1.10" vaporized=""/>
    <tripinfo id="westEastBottom0.1" depart="21.00" departLane="westJunction_0" departPos="5.10" departSpeed="27.27" departDelay="0.31" arrival="68.00" arrivalLane="junctionEast_1" arrivalPos="492.80" arrivalSpeed="27.54" duration="47.00" routeLength="994.90" waitingTime="0.00" waitingCount="0" stopTime="0.00" timeLoss="10.77" rerouteNo="0" devices="tripinfo_westEastBottom0.1 ssm_westEastBottom0.1" vType="carCustom" speedFactor="1.08" vaporized=""/>
    <tripinfo id="westEastBottom0.3" depart="26.00" departLane="westJunction_0" departPos="5.10" departSpeed="27.46" departDelay="0.13" arrival="72.00" arrivalLane="junctionEast_0" arrivalPos="492.80" arrivalSpeed="27.69" duration="46.00" routeLength="994.90" waitingTime="0.00" waitingCount="0" stopTime="0.00" timeLoss="9.47" rerouteNo="0" devices="tripinfo_westEastBottom0.3 ssm_westEastBottom0.3" vType="carCustom" speedFactor="0.89" vaporized=""/>
    <tripinfo id="westEastBottom0.2" depart="25.00" departLane="westJunction_0" departPos="5.10" departSpeed="27.08" departDelay="0.48" arrival="77.00" arrivalLane="junctionEast_1" arrivalPos="492.80" arrivalSpeed="26.80" duration="52.00" routeLength="994.90" waitingTime="0.00" waitingCount="0" stopTime="0.00" timeLoss="15.47" rerouteNo="0" devices="tripinfo_westEastBottom0.2 ssm_westEastBottom0.2" vType="carCustom" speedFactor="0.83" vaporized=""/>
    <tripinfo id="southEast.1" depart="24.00" departLane="southJunction_0" departPos="5.10" departSpeed="21.47" departDelay="0.37" arrival="80.00" arrivalLane="junctionEast_0" arrivalPos="492.80" arrivalSpeed="27.10" duration="56.00" routeLength="989.53" waitingTime="0.00" waitingCount="0" stopTime="0.00" timeLoss="19.18" rerouteNo="0" devices="tripinfo_southEast.1 ssm_southEast.1" vType="carCustom" speedFactor="0.88" vaporized=""/>
    <tripinfo id="westEastTop.1" depart="29.00" departLane="westJunction_1" departPos="5.10" departSpeed="25.89" departDelay="0.51" arrival="85.00" arrivalLane="junctionEast_1" arrivalPos="492.80" arrivalSpeed="26.91" duration="56.00" routeLength="994.90" waitingTime="0.00" waitingCount="0" stopTime="0.00" timeLoss="19.93" rerouteNo="0" devices="tripinfo_westEastTop.1 ssm_westEastTop.1" vType="carCustom" speedFactor="1.00" vaporized=""/>
    <tripinfo id="southNorth.1" depart="19.00" departLane="southJunction_1" departPos="5.10" departSpeed="27.53" departDelay="2.11" arrival="87.00" arrivalLane="junctionNorth_0" arrivalPos="492.80" arrivalSpeed="26.71" duration="68.00" routeLength="995.01" waitingTime="9.00" waitingCount="1" stopTime="0.00" timeLoss="31.56" rerouteNo="0" devices="tripinfo_southNorth.1 ssm_southNorth.1" vType="carCustom" speedFactor="0.96" vaporized=""/>
    <tripinfo id="southEast.2" depart="27.00" departLane="southJunction_0" departPos="5.10" departSpeed="21.85" departDelay="0.07" arrival="90.00" arrivalLane="junctionEast_0" arrivalPos="492.80" arrivalSpeed="27.05" duration="63.00" routeLength="989.53" waitingTime="0.00" waitingCount="0" stopTime="0.00" timeLoss="25.35" rerouteNo="0" devices="tripinfo_southEast.2 ssm_southEast.2" vType="carCustom" speedFactor="0.73" vaporized=""/>
    <tripinfo id="westEastTop.2" depart="31.00" departLane="westJunction_1" departPos="5.10" departSpeed="22.32" departDelay="0.30" arrival="93.00" arrivalLane="junctionEast_1" arrivalPos="492.80" arrivalSpeed="26.85" duration="62.00" routeLength="994.90" waitingTime="0.00" waitingCount="0" stopTime="0.00" timeLoss="26.06" rerouteNo="0" devices="tripinfo_westEastTop.2 ssm_westEastTop.2" vType="carCustom" speedFactor="0.89" vaporized=""/>
    <tripinfo id="southNorth.2" depart="24.00" departLane="southJunction_1" departPos="5.10" departSpeed="18.67" departDelay="0.90" arrival="97.00" arrivalLane="junctionNorth_0" arrivalPos="492.80" arrivalSpeed="27.22" duration="73.00" routeLength="995.01" waitingTime="4.00" waitingCount="1" stopTime="0.00" timeLoss="36.65" rerouteNo="0" devices="tripinfo_southNorth.2 ssm_southNorth.2" vType="carCustom" speedFactor="0.89" vaporized=""/>
    <tripinfo id="westEastBottom0.4" depart="28.00" departLane="westJunction_0" departPos="5.10" departSpeed="23.89" departDelay="0.85" arrival="98.00" arrivalLane="junctionEast_0" arrivalPos="492.80" arrivalSpeed="27.66" duration="70.00" routeLength="994.90" waitingTime="5.00" waitingCount="1" stopTime="0.00" timeLoss="33.15" rerouteNo="0" devices="tripinfo_westEastBottom0.4 ssm_westEastBottom0.4" vType="carCustom" speedFactor="0.92" vaporized=""/>
    <tripinfo id="westEastBottom0.5" depart="37.00" departLane="westJunction_0" departPos="5.10" departSpeed="11.81" departDelay="0.55" arrival="103.00" arrivalLane="junctionEast_1" arrivalPos="492.80" arrivalSpeed="26.85" duration="66.00" routeLength="994.90" waitingTime="0.00" waitingCount="0" stopTime="0.00" timeLoss="29.26" rerouteNo="0" devices="tripinfo_westEastBottom0.5 ssm_westEastBottom0.5" vType="carCustom" speedFactor="1.04" vaporized=""/>
    <tripinfo id="southEast.3" depart="38.00" departLane="southJunction_0" departPos="5.10" departSpeed="14.02" departDelay="0.10" arrival="105.00" arrivalLane="junctionEast_0" arrivalPos="492.80" arrivalSpeed="27.21" duration="67.00" routeLength="989.53" waitingTime="0.00" waitingCount="0" stopTime="0.00" timeLoss="30.37" rerouteNo="0" devices="tripinfo_southEast.3 ssm_southEast.3" vType="carCustom" speedFactor="1.06" vaporized=""/>
    <tripinfo id="southNorth.3" depart="38.00" departLane="southJunction_1" departPos="5.10" departSpeed="16.11" departDelay="0.76" arrival="107.00" arrivalLane="junctionNorth_0" arrivalPos="492.80" arrivalSpeed="27.31" duration="69.00" routeLength="995.01" waitingTime="3.00" waitingCount="1" stopTime="0.00" timeLoss="32.81" rerouteNo="0" devices="tripinfo_southNorth.3 ssm_southNorth.3" vType="carCustom" speedFactor="1.02" vaporized=""/>
    <tripinfo id="southEast.4" depart="52.00" departLane="southJunction_0" departPos="5.10" departSpeed="15.51" departDelay="0.99" arrival="111.00" arrivalLane="junctionEast_1" arrivalPos="492.80" arrivalSpeed="27.45" duration="59.00" routeLength="989.53" waitingTime="0.00" waitingCount="0" stopTime="0.00" timeLoss="22.30" rerouteNo="0" devices="tripinfo_southEast.4 ssm_southEast.4" vType="carCustom" speedFactor="0.85" vaporized=""/>
    <tripinfo id="westEastBottom0.6" depart="43.00" departLane="westJunction_0" departPos="5.10" departSpeed="15.09" departDelay="0.03" arrival="112.00" arrivalLane="junctionEast_0" arrivalPos="492.80" arrivalSpeed="26.64" duration="69.00" routeLength="994.90" waitingTime="0.00" waitingCount="0" stopTime="0.00" timeLoss="32.92" rerouteNo="0" devices="tripinfo_westEastBottom0.6 ssm_westEastBottom0.6" vType="carCustom" speedFactor="1.00" vaporized=""/>
    <tripinfo id="southNorth.4" depart="44.00" departLane="southJunction_1" departPos="5.10" departSpeed="18.67" departDelay="0.55" arrival="118.00" arrivalLane="junctionNorth_0" arrivalPos="492.80" arrivalSpeed="26.76" duration="74.00" routeLength="995.01" waitingTime="3.00" waitingCount="1" stopTime="0.00" timeLoss="37.46" rerouteNo="0" devices="tripinfo_southNorth.4 ssm_southNorth.4" vType="carCustom" speedFactor="1.05" vaporized=""/>
    <tripinfo id="westEastTop.3" depart="41.00" departLane="westJunction_1" departPos="5.10" departSpeed="11.08" departDelay="0.34" arrival="119.00" arrivalLane="junctionEast_1" arrivalPos="492.80" arrivalSpeed="27.21" duration="78.00" routeLength="994.90" waitingTime="1.00" waitingCount="1" stopTime="0.00" timeLoss="41.39" rerouteNo="0" devices="tripinfo_westEastTop.3 ssm_westEastTop.3" vType="carCustom" speedFactor="0.83" vaporized=""/>
    <tripinfo id="westEastBottom0.7" depart="55.00" departLane="westJunction_0" departPos="5.10" departSpeed="13.18" departDelay="0.50" arrival="119.00" arrivalLane="junctionEast_0" arrivalPos="492.80" arrivalSpeed="27.04" duration="64.00" routeLength="994.90" waitingTime="0.00" waitingCount="0" stopTime="0.00" timeLoss="28.02" rerouteNo="0" devices="tripinfo_westEastBottom0.7 ssm_westEastBottom0.7" vType="carCustom" speedFactor="0.94" vaporized=""/>
    <tripinfo id="westEastTop.4" depart="48.00" departLane="westJunction_1" departPos="5.10" departSpeed="13.33" departDelay="0.38" arrival="126.00" arrivalLane="junctionEast_1" arrivalPos="492.80" arrivalSpeed="27.05" duration="78.00" routeLength="994.90" waitingTime="2.00" waitingCount="1" stopTime="0.00" timeLoss="42.18" rerouteNo="0" devices="tripinfo_westEastTop.4 ssm_westEastTop.4" vType="carCustom" speedFactor="0.82" vaporized=""/>
    <tripinfo id="southEast.5" depart="62.00" departLane="southJunction_0" departPos="5.10" departSpeed="17.32" departDelay="0.43" arrival="126.00" arrivalLane="junctionEast_0" arrivalPos="492.80" arrivalSpeed="27.58" duration="64.00" routeLength="989.53" waitingTime="0.00" waitingCount="0" stopTime="0.00" timeLoss="27.40" rerouteNo="0" devices="tripinfo_southEast.5 ssm_southEast.5" vType="carCustom" speedFactor="0.96" vaporized=""/>
    <tripinfo id="southNorth.5" depart="53.00" departLane="southJunction_1" departPos="5.10" departSpeed="15.28" departDelay="0.82" arrival="127.00" arrivalLane="junctionNorth_0" arrivalPos="492.80" arrivalSpeed="27.05" duration="74.00" routeLength="995.01" waitingTime="3.00" waitingCount="1" stopTime="0.00" timeLoss="38.15" rerouteNo="0" devices="tripinfo_southNorth.5 ssm_southNorth.5" vType="carCustom" speedFactor="0.78" vaporized=""/>
    <tripinfo id="westEastBottom0.8" depart="57.00" departLane="westJunction_0" departPos="5.10" departSpeed="15.18" departDelay="2.16" arrival="133.00" arrivalLane="junctionEast_0" arrivalPos="492.80" arrivalSpeed="27.13" duration="76.00" routeLength="994.90" waitingTime="0.00" waitingCount="0" stopTime="0.00" timeLoss="39.90" rerouteNo="0" devices="tripinfo_westEastBottom0.8 ssm_westEastBottom0.8" vType="carCustom" speedFactor="0.90" vaporized=""/>
    <tripinfo id="westEastTop.5" depart="51.00" departLane="westJunction_1" departPos="5.10" departSpeed="12.52" departDelay="0.02" arrival="135.00" arrivalLane="junctionEast_1" arrivalPos="492.80" arrivalSpeed="26.81" duration="84.00" routeLength="994.90" waitingTime="2.00" waitingCount="1" stopTime="0.00" timeLoss="47.44" rerouteNo="0" devices="tripinfo_westEastTop.5 ssm_westEastTop.5" vType="carCustom" speedFactor="0.97" vaporized=""/>
    <tripinfo id="southNorth.6" depart="56.00" departLane="southJunction_1" departPos="5.10" departSpeed="15.52" departDelay="0.10" arrival="137.00" arrivalLane="junctionNorth_0" arrivalPos="492.80" arrivalSpeed="27.16" duration="81.00" routeLength="995.01" waitingTime="3.00" waitingCount="1" stopTime="0.00" timeLoss="44.97" rerouteNo="0" devices="tripinfo_southNorth.6 ssm_southNorth.6" vType="carCustom" speedFactor="0.90" vaporized=""/>
    <tripinfo id="westEastTop.6" depart="62.00" departLane="westJunction_1" departPos="5.10" departSpeed="10.66" departDelay="0.44" arrival="144.00" arrivalLane="junctionEast_1" arrivalPos="492.80" arrivalSpeed="26.76" duration="82.00" routeLength="994.90" waitingTime="3.00" waitingCount="1" stopTime="0.00" timeLoss="45.33" rerouteNo="0" devices="tripinfo_westEastTop.6 ssm_westEastTop.6" vType="carCustom" speedFactor="0.97" vaporized=""/>
    <tripinfo id="southEast.6" depart="86.00" departLane="southJunction_0" departPos="5.10" departSpeed="13.34" departDelay="0.59" arrival="144.00" arrivalLane="junctionEast_0" arrivalPos="492.80" arrivalSpeed="26.48" duration="58.00" routeLength="989.53" waitingTime="0.00" waitingCount="0" stopTime="0.00" timeLoss="21.21" rerouteNo="0" devices="tripinfo_southEast.6 ssm_southEast.6" vType="carCustom" speedFactor="1.11" vaporized=""/>
    <tripinfo id="westEastTop.7" depart="71.00" departLane="westJunction_1" departPos="5.10" departSpeed="11.80" departDelay="0.35" arrival="152.00" arrivalLane="junctionEast_1" arrivalPos="492.80" arrivalSpeed="26.64" duration="81.00" routeLength="994.90" waitingTime="0.00" waitingCount="0" stopTime="0.00" timeLoss="44.28" rerouteNo="0" devices="tripinfo_westEastTop.7 ssm_westEastTop.7" vType="carCustom" speedFactor="0.94" vaporized=""/>
    <tripinfo id="southNorth.7" depart="60.00" departLane="southJunction_1" departPos="5.10" departSpeed="9.74" departDelay="0.41" arrival="155.00" arrivalLane="junctionNorth_0" arrivalPos="492.80" arrivalSpeed="26.97" duration="95.00" routeLength="995.01" waitingTime="12.00" waitingCount="1" stopTime="0.00" timeLoss="58.49" rerouteNo="0" devices="tripinfo_southNorth.7 ssm_southNorth.7" vType="carCustom" speedFactor="1.00" vaporized=""/>
    <tripinfo id="westEastTop.8" depart="85.00" departLane="westJunction_1" departPos="5.10" departSpeed="12.14" departDelay="0.12" arrival="159.00" arrivalLane="junctionEast_1" arrivalPos="492.80" arrivalSpeed="27.21" duration="74.00" routeLength="994.90" waitingTime="0.00" waitingCount="0" stopTime="0.00" timeLoss="37.61" rerouteNo="0" devices="tripinfo_westEastTop.8 ssm_westEastTop.8" vType="carCustom" speedFactor="1.00" vaporized=""/>
    <tripinfo id="westEastBottom0.10" depart="99.00" departLane="westJunction_0" departPos="5.10" departSpeed="27.78" departDelay="0.88" arrival="166.00" arrivalLane="junctionEast_1" arrivalPos="492.80" arrivalSpeed="27.18" duration="67.00" routeLength="994.90" waitingTime="0.00" waitingCount="0" stopTime="0.00" timeLoss="30.91" rerouteNo="0" devices="tripinfo_westEastBottom0.10 ssm_westEastBottom0.10" vType="carCustom" speedFactor="1.06" vaporized=""/>
    <tripinfo id="westEastBottom0.13" depart="116.00" departLane="westJunction_0" departPos="5.10" departSpeed="27.78" departDelay="0.62" arrival="167.00" arrivalLane="junctionEast_0" arrivalPos="492.80" arrivalSpeed="27.23" duration="51.00" routeLength="994.90" waitingTime="0.00" waitingCount="0" stopTime="0.00" timeLoss="14.84" rerouteNo="0" devices="tripinfo_westEastBottom0.13 ssm_westEastBottom0.13" vType="carCustom" speedFactor="0.98" vaporized=""/>
    <tripinfo id="southNorth.8" depart="67.00" departLane="southJunction_1" departPos="5.10" departSpeed="9.54" departDelay="0.54" arrival="172.00" arrivalLane="junctionNorth_0" arrivalPos="492.80" arrivalSpeed="27.13" duration="105.00" routeLength="995.01" waitingTime="18.00" waitingCount="2" stopTime="0.00" timeLoss="68.54" rerouteNo="0" devices="tripinfo_southNorth.8 ssm_southNorth.8" vType="carCustom" speedFactor="1.14" vaporized=""/>
    <tripinfo id="westEastBottom0.9" depart="94.00" departLane="westJunction_0" departPos="5.10" departSpeed="11.06" departDelay="0.90" arrival="173.00" arrivalLane="junctionEast_1" arrivalPos="492.80" arrivalSpeed="26.68" duration="79.00" routeLength="994.90" waitingTime="0.00" waitingCount="0" stopTime="0.00" timeLoss="42.81" rerouteNo="0" devices="tripinfo_westEastBottom0.9 ssm_westEastBottom0.9" vType="carCustom" speedFactor="0.84" vaporized=""/>
    <tripinfo id="westEastBottom0.14" depart="123.00" departLane="westJunction_0" departPos="5.10" departSpeed="22.25" departDelay="0.36" arrival="177.00" arrivalLane="junctionEast_0" arrivalPos="492.80" arrivalSpeed="27.62" duration="54.00" routeLength="994.90" waitingTime="0.00" waitingCount="0" stopTime="0.00" timeLoss="17.72" rerouteNo="0" devices="tripinfo_westEastBottom0.14 ssm_westEastBottom0.14" vType="carCustom" speedFactor="0.73" vaporized=""/>
    <tripinfo id="westEastBottom0.11" depart="101.00" departLane="westJunction_0" departPos="5.10" departSpeed="26.00" departDelay="0.77" arrival="180.00" arrivalLane="junctionEast_1" arrivalPos="492.80" arrivalSpeed="27.51" duration="79.00" routeLength="994.90" waitingTime="0.00" waitingCount="0" stopTime="0.00" timeLoss="42.60" rerouteNo="0" devices="tripinfo_westEastBottom0.11 ssm_westEastBottom0.11" vType="carCustom" speedFactor="0.96" vaporized=""/>
    <tripinfo id="southNorth.9" depart="76.00" departLane="southJunction_1" departPos="5.10" departSpeed="10.33" departDelay="0.19" arrival="182.00" arrivalLane="junctionNorth_0" arrivalPos="492.80" arrivalSpeed="26.70" duration="106.00" routeLength="995.01" waitingTime="15.00" waitingCount="3" stopTime="0.00" timeLoss="69.98" rerouteNo="0" devices="tripinfo_southNorth.9 ssm_southNorth.9" vType="carCustom" speedFactor="0.93" vaporized=""/>
    <tripinfo id="westEastBottom0.12" depart="103.00" departLane="westJunction_0" departPos="5.10" departSpeed="22.43" departDelay="1.37" arrival="187.00" arrivalLane="junctionEast_1" arrivalPos="492.80" arrivalSpeed="26.60" duration="84.00" routeLength="994.90" waitingTime="0.00" waitingCount="0" stopTime="0.00" timeLoss="47.82" rerouteNo="0" devices="tripinfo_westEastBottom0.12 ssm_westEastBottom0.12" vType="carCustom" speedFactor="0.97" vaporized=""/>
    <tripinfo id="southEast.7" depart="130.00" departLane="southJunction_0" departPos="5.10" departSpeed="27.78" departDelay="0.75" arrival="188.00" arrivalLane="junctionEast_0" arrivalPos="492.80" arrivalSpeed="27.47" duration="58.00" routeLength="989.53" waitingTime="0.00" waitingCount="0" stopTime="0.00" timeLoss="21.06" rerouteNo="0" devices="tripinfo_southEast.7 ssm_southEast.7" vType="carCustom" speedFactor="1.12" vaporized=""/>
    <tripinfo id="southNorth.10" depart="79.00" departLane="southJunction_1" departPos="5.10" departSpeed="10.95" departDelay="0.11" arrival="192.00" arrivalLane="junctionNorth_0" arrivalPos="492.80" arrivalSpeed="27.48" duration="113.00" routeLength="995.01" waitingTime="14.00" waitingCount="3" stopTime="0.00" timeLoss="77.09" rerouteNo="0" devices="tripinfo_southNorth.10 ssm_southNorth.10" vType="carCustom" speedFactor="0.85" vaporized=""/>
    <tripinfo id="westEastTop.9" depart="104.00" departLane="westJunction_1" departPos="5.10" departSpeed="14.32" departDelay="0.46" arrival="194.00" arrivalLane="junctionEast_1" arrivalPos="492.80" arrivalSpeed="26.84" duration="90.00" routeLength="994.90" waitingTime="0.00" waitingCount="0" stopTime="0.00" timeLoss="53.88" rerouteNo="0" devices="tripinfo_westEastTop.9 ssm_westEastTop.9" vType="carCustom" speedFactor="0.97" vaporized=""/>
    <tripinfo id="westEastBottom0.15" depart="125.00" departLane="westJunction_0" departPos="5.10" departSpeed="19.71" departDelay="0.39" arrival="195.00" arrivalLane="junctionEast_0" arrivalPos="492.80" arrivalSpeed="27.30" duration="70.00" routeLength="994.90" waitingTime="0.00" waitingCount="0" stopTime="0.00" timeLoss="33.86" rerouteNo="0" devices="tripinfo_westEastBottom0.15 ssm_westEastBottom0.15" vType="carCustom" speedFactor="0.89" vaporized=""/>
    <tripinfo id="southNorth.11" depart="94.00" departLane="southJunction_1" departPos="5.10" departSpeed="10.16" departDelay="0.39" arrival="202.00" arrivalLane="junctionNorth_0" arrivalPos="492.80" arrivalSpeed="27.70" duration="108.00" routeLength="995.01" waitingTime="12.00" waitingCount="3" stopTime="0.00" timeLoss="71.86" rerouteNo="0" devices="tripinfo_southNorth.11 ssm_southNorth.11" vType="carCustom" speedFactor="1.03" vaporized=""/>
    <tripinfo id="westEastTop.10" depart="107.00" departLane="westJunction_1" departPos="5.10" departSpeed="13.16" departDelay="0.44" arrival="202.00" arrivalLane="junctionEast_1" arrivalPos="492.80" arrivalSpeed="26.85" duration="95.00" routeLength="994.90" waitingTime="2.00" waitingCount="1" stopTime="0.00" timeLoss="58.44" rerouteNo="0" devices="tripinfo_westEastTop.10 ssm_westEastTop.10" vType="carCustom" speedFactor="0.91" vaporized=""/>
    <tripinfo id="southEast.8" depart="139.00" departLane="southJunction_0" departPos="5.10" departSpeed="19.88" departDelay="0.55" arrival="203.00" arrivalLane="junctionEast_0" arrivalPos="492.80" arrivalSpeed="27.38" duration="64.00" routeLength="989.53" waitingTime="0.00" waitingCount="0" stopTime="0.00" timeLoss="26.70" rerouteNo="0" devices="tripinfo_southEast.8 ssm_southEast.8" vType="carCustom" speedFactor="1.09" vaporized=""/>
    <tripinfo id="westEastBottom0.16" depart="142.00" departLane="westJunction_0" departPos="5.10" departSpeed="13.92" departDelay="0.31" arrival="209.00" arrivalLane="junctionEast_0" arrivalPos="492.80" arrivalSpeed="27.70" duration="67.00" routeLength="994.90" waitingTime="0.00" waitingCount="0" stopTime="0.00" timeLoss="31.11" rerouteNo="0" devices="tripinfo_westEastBottom0.16 ssm_westEastBottom0.16" vType="carCustom" speedFactor="1.09" vaporized=""/>
    <tripinfo id="westEastTop.11" depart="109.00" departLane="westJunction_1" departPos="5.10" departSpeed="9.88" departDelay="1.46" arrival="210.00" arrivalLane="junctionEast_1" arrivalPos="492.80" arrivalSpeed="27.22" duration="101.00" routeLength="994.90" waitingTime="3.00" waitingCount="1" stopTime="0.00" timeLoss="64.55" rerouteNo="0" devices="tripinfo_westEastTop.11 ssm_westEastTop.11" vType="carCustom" speedFactor="1.02" vaporized=""/>
    <tripinfo id="southEast.9" depart="141.00" departLane="southJunction_0" departPos="5.10" departSpeed="19.01" departDelay="1.54" arrival="216.00" arrivalLane="junctionEast_0" arrivalPos="492.80" arrivalSpeed="27.43" duration="75.00" routeLength="989.53" waitingTime="0.00" waitingCount="0" stopTime="0.00" timeLoss="37.54" rerouteNo="0" devices="tripinfo_southEast.9 ssm_southEast.9" vType="carCustom" speedFactor="1.07" vaporized=""/>
    <tripinfo id="westEastTop.12" depart="114.00" departLane="westJunction_1" departPos="5.10" departSpeed="5.59" departDelay="0.39" arrival="217.00" arrivalLane="junctionEast_1" arrivalPos="492.80" arrivalSpeed="27.77" duration="103.00" routeLength="994.90" waitingTime="0.00" waitingCount="0" stopTime="0.00" timeLoss="66.84" rerouteNo="0" devices="tripinfo_westEastTop.12 ssm_westEastTop.12" vType="carCustom" speedFactor="0.82" vaporized=""/>
    <tripinfo id="westEastBottom0.17" depart="152.00" departLane="westJunction_0" departPos="5.10" departSpeed="17.21" departDelay="0.31" arrival="223.00" arrivalLane="junctionEast_0" arrivalPos="492.80" arrivalSpeed="27.77" duration="71.00" routeLength="994.90" waitingTime="0.00" waitingCount="0" stopTime="0.00" timeLoss="34.27" rerouteNo="0" devices="tripinfo_westEastBottom0.17 ssm_westEastBottom0.17" vType="carCustom" speedFactor="0.98" vaporized=""/>
    <tripinfo id="westEastTop.13" depart="117.00" departLane="westJunction_1" departPos="5.10" departSpeed="5.63" departDelay="0.66" arrival="224.00" arrivalLane="junctionEast_1" arrivalPos="492.80" arrivalSpeed="26.60" duration="107.00" routeLength="994.90" waitingTime="0.00" waitingCount="0" stopTime="0.00" timeLoss="70.98" rerouteNo="0" devices="tripinfo_westEastTop.13 ssm_westEastTop.13" vType="carCustom" speedFactor="0.98" vaporized=""/>
    <tripinfo id="southNorth.12" depart="116.00" departLane="southJunction_1" departPos="5.10" departSpeed="10.88" departDelay="0.76" arrival="229.00" arrivalLane="junctionNorth_0" arrivalPos="492.80" arrivalSpeed="27.52" duration="113.00" routeLength="995.01" waitingTime="26.00" waitingCount="2" stopTime="0.00" timeLoss="76.73" rerouteNo="0" devices="tripinfo_southNorth.12 ssm_southNorth.12" vType="carCustom" speedFactor="1.09" vaporized=""/>
    <tripinfo id="southEast.10" depart="154.00" departLane="southJunction_0" departPos="5.10" departSpeed="13.37" departDelay="0.66" arrival="229.00" arrivalLane="junctionEast_0" arrivalPos="492.80" arrivalSpeed="27.66" duration="75.00" routeLength="989.53" waitingTime="0.00" waitingCount="0" stopTime="0.00" timeLoss="38.40" rerouteNo="0" devices="tripinfo_southEast.10 ssm_southEast.10" vType="carCustom" speedFactor="1.14" vaporized=""/>
    <tripinfo id="westEastTop.14" depart="131.00" departLane="westJunction_1" departPos="5.10" departSpeed="6.30" departDelay="0.66" arrival="231.00" arrivalLane="junctionEast_1" arrivalPos="492.80" arrivalSpeed="27.66" duration="100.00" routeLength="994.90" waitingTime="0.00" waitingCount="0" stopTime="0.00" timeLoss="63.77" rerouteNo="0" devices="tripinfo_westEastTop.14 ssm_westEastTop.14" vType="carCustom" speedFactor="0.84" vaporized=""/>
    <tripinfo id="westEastBottom0.18" depart="168.00" departLane="westJunction_0" departPos="5.10" departSpeed="16.06" departDelay="0.82" arrival="236.00" arrivalLane="junctionEast_0" arrivalPos="492.80" arrivalSpeed="27.73" duration="68.00" routeLength="994.90" waitingTime="0.00" waitingCount="0" stopTime="0.00" timeLoss="31.30" rerouteNo="0" devices="tripinfo_westEastBottom0.18 ssm_westEastBottom0.18" vType="carCustom" speedFactor="0.90" vaporized=""/>
    <tripinfo id="southNorth.13" depart="118.00" departLane="southJunction_1" departPos="5.10" departSpeed="14.62" departDelay="2.08" arrival="237.00" arrivalLane="junctionNorth_0" arrivalPos="492.80" arrivalSpeed="27.00" duration="119.00" routeLength="995.01" waitingTime="20.00" waitingCount="1" stopTime="0.00" timeLoss="82.74" rerouteNo="0" devices="tripinfo_southNorth.13 ssm_southNorth.13" vType="carCustom" speedFactor="1.01" vaporized=""/>
    <tripinfo id="westEastTop.15" depart="134.00" departLane="westJunction_1" departPos="5.10" departSpeed="8.85" departDelay="0.93" arrival="238.00" arrivalLane="junctionEast_1" arrivalPos="492.80" arrivalSpeed="26.72" duration="104.00" routeLength="994.90" waitingTime="0.00" waitingCount="0" stopTime="0.00" timeLoss="67.53" rerouteNo="0" devices="tripinfo_westEastTop.15 ssm_westEastTop.15" vType="carCustom" speedFactor="1.08" vaporized=""/>
    <tripinfo id="southEast.11" depart="172.00" departLane="southJunction_0" departPos="5.10" departSpeed="14.09" departDelay="0.23" arrival="242.00" arrivalLane="junctionEast_0" arrivalPos="492.80" arrivalSpeed="27.54" duration="70.00" routeLength="989.53" waitingTime="0.00" waitingCount="0" stopTime="0.00" timeLoss="33.42" rerouteNo="0" devices="tripinfo_southEast.11 ssm_southEast.11" vType="carCustom" speedFactor="1.12" vaporized=""/>
    <tripinfo id="westEastTop.16" depart="142.00" departLane="westJunction_1" departPos="5.10" departSpeed="7.03" departDelay="0.42" arrival="245.00" arrivalLane="junctionEast_1" arrivalPos="492.80" arrivalSpeed="27.32" duration="103.00" routeLength="994.90" waitingTime="0.00" waitingCount="0" stopTime="0.00" timeLoss="66.41" rerouteNo="0" devices="tripinfo_westEastTop.16 ssm_westEastTop.16" vType="carCustom" speedFactor="1.01" vaporized=""/>
    <tripinfo id="westEastBottom0.19" depart="173.00" departLane="westJunction_0" departPos="5.10" departSpeed="16.91" departDelay="0.19" arrival="248.00" arrivalLane="junctionEast_0" arrivalPos="492.80" arrivalSpeed="26.86" duration="75.00" routeLength="994.90" waitingTime="0.00" waitingCount="0" stopTime="0.00" timeLoss="39.18" rerouteNo="0" devices="tripinfo_westEastBottom0.19 ssm_westEastBottom0.19" vType="carCustom" speedFactor="0.85" vaporized=""/>