<?xml version="1.0" encoding="UTF-8"?>

<!-- generated on 2025-04-29 10:23:41 by Eclipse SUMO sumo Version 1.20.0
<configuration xmlns:xsi="http://www.w3.org/2001/XMLSchema-instance" xsi:noNamespaceSchemaLocation="http://sumo.dlr.de/xsd/sumoConfiguration.xsd">

    <input>
        <net-file value="nets/2lane_unprotected_right/2lane_unprotected_right.net.xml"/>
        <route-files value="nets/2lane_unprotected_right/2lane_unprotected_right.rou.xml"/>
    </input>

    <output>
        <tripinfo-output value="traces/transs50f1_s50_f0.5_random/0259_tripinfo.xml"/>
        <collision-output value="traces/transs50f1_s50_f0.5_random/0259_collisions.xml"/>
        <statistic-output value="traces/transs50f1_s50_f0.5_random/0259_statistics.xml"/>
    </output>

    <processing>
        <collision.action value="teleport"/>
        <collision.check-junctions value="true"/>
        <time-to-teleport value="-1"/>
        <waiting-time-memory value="1000"/>
        <max-depart-delay value="-1"/>
        <default.speeddev value="0.1"/>
    </processing>

    <report>
        <no-warnings value="true"/>
    </report>

    <ssm_device>
        <device.ssm.probability value="1.0"/>
        <device.ssm.measures value="BR"/>
        <device.ssm.file value="/Users/finn/Code/CausalKnowledgeTransfer-4-SafeRL/traces/transs50f1_s50_f0.5_random/0259_ssm.xml"/>
    </ssm_device>

    <traci_server>
        <remote-port value="49228"/>
    </traci_server>

    <random_number>
        <random value="true"/>
    </random_number>

</configuration>
-->

<tripinfos xmlns:xsi="http://www.w3.org/2001/XMLSchema-instance" xsi:noNamespaceSchemaLocation="http://sumo.dlr.de/xsd/tripinfo_file.xsd">
    <tripinfo id="westEastBottom0.2" depart="55.00" departLane="westJunction_0" departPos="5.10" departSpeed="8.10" departDelay="0.31" arrival="121.00" arrivalLane="junctionEast_0" arrivalPos="492.80" arrivalSpeed="5.83" duration="66.00" routeLength="994.90" waitingTime="0.00" waitingCount="0" stopTime="0.00" timeLoss="5.46" rerouteNo="0" devices="tripinfo_westEastBottom0.2 ssm_westEastBottom0.2" vType="carCustom" speedFactor="0.96" vaporized="teleport"/>
    <tripinfo id="westEastTop.0" depart="5.00" departLane="westJunction_1" departPos="5.10" departSpeed="8.33" departDelay="0.97" arrival="135.00" arrivalLane="junctionEast_0" arrivalPos="492.80" arrivalSpeed="7.95" duration="130.00" routeLength="994.90" waitingTime="0.00" waitingCount="0" stopTime="0.00" timeLoss="9.83" rerouteNo="0" devices="tripinfo_westEastTop.0 ssm_westEastTop.0" vType="carCustom" speedFactor="0.85" vaporized=""/>
    <tripinfo id="westEastBottom0.0" depart="11.00" departLane="westJunction_0" departPos="5.10" departSpeed="8.33" departDelay="0.12" arrival="140.00" arrivalLane="junctionEast_0" arrivalPos="492.80" arrivalSpeed="7.45" duration="129.00" routeLength="994.90" waitingTime="0.00" waitingCount="0" stopTime="0.00" timeLoss="9.51" rerouteNo="0" devices="tripinfo_westEastBottom0.0 ssm_westEastBottom0.0" vType="carCustom" speedFactor="1.01" vaporized=""/>
    <tripinfo id="westEastTop.1" depart="10.00" departLane="westJunction_1" departPos="5.10" departSpeed="7.37" departDelay="0.30" arrival="141.00" arrivalLane="junctionEast_1" arrivalPos="492.80" arrivalSpeed="7.47" duration="131.00" routeLength="994.90" waitingTime="0.00" waitingCount="0" stopTime="0.00" timeLoss="11.19" rerouteNo="0" devices="tripinfo_westEastTop.1 ssm_westEastTop.1" vType="carCustom" speedFactor="1.12" vaporized=""/>
    <tripinfo id="southEast.0" depart="13.00" departLane="southJunction_0" departPos="5.10" departSpeed="8.33" departDelay="0.94" arrival="146.00" arrivalLane="junctionEast_0" arrivalPos="492.80" arrivalSpeed="7.31" duration="133.00" routeLength="989.53" waitingTime="0.00" waitingCount="0" stopTime="0.00" timeLoss="13.28" rerouteNo="0" devices="tripinfo_southEast.0 ssm_southEast.0" vType="carCustom" speedFactor="1.03" vaporized=""/>
    <tripinfo id="westEastTop.2" depart="16.00" departLane="westJunction_1" departPos="5.10" departSpeed="7.09" departDelay="0.96" arrival="147.00" arrivalLane="junctionEast_1" arrivalPos="492.80" arrivalSpeed="7.69" duration="131.00" routeLength="994.90" waitingTime="0.00" waitingCount="0" stopTime="0.00" timeLoss="10.72" rerouteNo="0" devices="tripinfo_westEastTop.2 ssm_westEastTop.2" vType="carCustom" speedFactor="0.87" vaporized=""/>
    <tripinfo id="southNorth.0" depart="10.00" departLane="southJunction_1" departPos="5.10" departSpeed="8.33" departDelay="0.42" arrival="150.00" arrivalLane="junctionNorth_0" arrivalPos="492.80" arrivalSpeed="7.41" duration="140.00" routeLength="995.01" waitingTime="7.00" waitingCount="1" stopTime="0.00" timeLoss="20.45" rerouteNo="0" devices="tripinfo_southNorth.0 ssm_southNorth.0" vType="carCustom" speedFactor="0.94" vaporized=""/>
    <tripinfo id="southEast.1" depart="19.00" departLane="southJunction_0" departPos="5.10" departSpeed="7.91" departDelay="0.55" arrival="151.00" arrivalLane="junctionEast_0" arrivalPos="492.80" arrivalSpeed="8.08" duration="132.00" routeLength="989.53" waitingTime="0.00" waitingCount="0" stopTime="0.00" timeLoss="12.74" rerouteNo="0" devices="tripinfo_southEast.1 ssm_southEast.1" vType="carCustom" speedFactor="1.05" vaporized=""/>
    <tripinfo id="westEastTop.3" depart="21.00" departLane="westJunction_1" departPos="5.10" departSpeed="8.20" departDelay="0.44" arrival="157.00" arrivalLane="junctionEast_0" arrivalPos="492.80" arrivalSpeed="7.39" duration="136.00" routeLength="994.90" waitingTime="0.00" waitingCount="0" stopTime="0.00" timeLoss="16.00" rerouteNo="0" devices="tripinfo_westEastTop.3 ssm_westEastTop.3" vType="carCustom" speedFactor="1.03" vaporized=""/>
    <tripinfo id="southNorth.1" depart="12.00" departLane="southJunction_1" departPos="5.10" departSpeed="7.83" departDelay="1.45" arrival="160.00" arrivalLane="junctionNorth_0" arrivalPos="492.80" arrivalSpeed="7.17" duration="148.00" routeLength="995.01" waitingTime="4.00" waitingCount="1" stopTime="0.00" timeLoss="27.74" rerouteNo="0" devices="tripinfo_southNorth.1 ssm_southNorth.1" vType="carCustom" speedFactor="1.07" vaporized=""/>
    <tripinfo id="westEastTop.4" depart="24.00" departLane="westJunction_1" departPos="5.10" departSpeed="7.52" departDelay="0.14" arrival="164.00" arrivalLane="junctionEast_1" arrivalPos="492.80" arrivalSpeed="7.60" duration="140.00" routeLength="994.90" waitingTime="3.00" waitingCount="1" stopTime="0.00" timeLoss="20.42" rerouteNo="0" devices="tripinfo_westEastTop.4 ssm_westEastTop.4" vType="carCustom" speedFactor="1.05" vaporized=""/>
    <tripinfo id="westEastBottom0.1" depart="34.00" departLane="westJunction_0" departPos="5.10" departSpeed="7.62" departDelay="0.64" arrival="164.00" arrivalLane="junctionEast_0" arrivalPos="492.80" arrivalSpeed="7.80" duration="130.00" routeLength="994.90" waitingTime="0.00" waitingCount="0" stopTime="0.00" timeLoss="10.17" rerouteNo="0" devices="tripinfo_westEastBottom0.1 ssm_westEastBottom0.1" vType="carCustom" speedFactor="1.04" vaporized=""/>
    <tripinfo id="southNorth.2" depart="17.00" departLane="southJunction_1" departPos="5.10" departSpeed="5.57" departDelay="0.70" arrival="170.00" arrivalLane="junctionNorth_0" arrivalPos="492.80" arrivalSpeed="8.30" duration="153.00" routeLength="995.01" waitingTime="6.00" waitingCount="2" stopTime="0.00" timeLoss="32.87" rerouteNo="0" devices="tripinfo_southNorth.2 ssm_southNorth.2" vType="carCustom" speedFactor="1.06" vaporized=""/>
    <tripinfo id="westEastTop.5" depart="27.00" departLane="westJunction_1" departPos="5.10" departSpeed="6.10" departDelay="2.91" arrival="170.00" arrivalLane="junctionEast_1" arrivalPos="492.80" arrivalSpeed="8.25" duration="143.00" routeLength="994.90" waitingTime="0.00" waitingCount="0" stopTime="0.00" timeLoss="23.05" rerouteNo="0" devices="tripinfo_westEastTop.5 ssm_westEastTop.5" vType="carCustom" speedFactor="0.88" vaporized=""/>
    <tripinfo id="southEast.2" depart="36.00" departLane="southJunction_0" departPos="5.10" departSpeed="8.14" departDelay="0.33" arrival="170.00" arrivalLane="junctionEast_0" arrivalPos="492.80" arrivalSpeed="7.65" duration="134.00" routeLength="989.53" waitingTime="1.00" waitingCount="1" stopTime="0.00" timeLoss="14.97" rerouteNo="0" devices="tripinfo_southEast.2 ssm_southEast.2" vType="carCustom" speedFactor="1.09" vaporized=""/>
    <tripinfo id="westEastTop.6" depart="30.00" departLane="westJunction_1" departPos="5.10" departSpeed="4.59" departDelay="2.13" arrival="176.00" arrivalLane="junctionEast_0" arrivalPos="492.80" arrivalSpeed="8.11" duration="146.00" routeLength="994.90" waitingTime="0.00" waitingCount="0" stopTime="0.00" timeLoss="25.75" rerouteNo="0" devices="tripinfo_westEastTop.6 ssm_westEastTop.6" vType="carCustom" speedFactor="1.22" vaporized=""/>
    <tripinfo id="westEastTop.7" depart="39.00" departLane="westJunction_1" departPos="5.10" departSpeed="4.79" departDelay="0.67" arrival="181.00" arrivalLane="junctionEast_0" arrivalPos="492.80" arrivalSpeed="8.28" duration="142.00" routeLength="994.90" waitingTime="0.00" waitingCount="0" stopTime="0.00" timeLoss="22.56" rerouteNo="0" devices="tripinfo_westEastTop.7 ssm_westEastTop.7" vType="carCustom" speedFactor="1.04" vaporized=""/>
    <tripinfo id="westEastTop.8" depart="42.00" departLane="westJunction_1" departPos="5.10" departSpeed="6.06" departDelay="0.65" arrival="187.00" arrivalLane="junctionEast_0" arrivalPos="492.80" arrivalSpeed="8.26" duration="145.00" routeLength="994.90" waitingTime="0.00" waitingCount="0" stopTime="0.00" timeLoss="24.94" rerouteNo="0" devices="tripinfo_westEastTop.8 ssm_westEastTop.8" vType="carCustom" speedFactor="0.96" vaporized=""/>
    <tripinfo id="southEast.4" depart="51.00" departLane="southJunction_0" departPos="5.10" departSpeed="8.01" departDelay="2.90" arrival="189.00" arrivalLane="junctionEast_0" arrivalPos="492.80" arrivalSpeed="7.08" duration="138.00" routeLength="989.53" waitingTime="0.00" waitingCount="0" stopTime="0.00" timeLoss="18.56" rerouteNo="0" devices="tripinfo_southEast.4 ssm_southEast.4" vType="carCustom" speedFactor="0.92" vaporized=""/>
    <tripinfo id="southNorth.3" depart="20.00" departLane="southJunction_1" departPos="5.10" departSpeed="5.59" departDelay="2.95" arrival="192.00" arrivalLane="junctionNorth_0" arrivalPos="492.80" arrivalSpeed="7.37" duration="172.00" routeLength="995.01" waitingTime="20.00" waitingCount="2" stopTime="0.00" timeLoss="51.93" rerouteNo="0" devices="tripinfo_southNorth.3 ssm_southNorth.3" vType="carCustom" speedFactor="0.90" vaporized=""/>
    <tripinfo id="southEast.3" depart="48.00" departLane="southJunction_0" departPos="5.10" departSpeed="7.62" departDelay="0.97" arrival="193.00" arrivalLane="junctionEast_0" arrivalPos="492.80" arrivalSpeed="7.69" duration="145.00" routeLength="989.53" waitingTime="0.00" waitingCount="0" stopTime="0.00" timeLoss="25.12" rerouteNo="0" devices="tripinfo_southEast.3 ssm_southEast.3" vType="carCustom" speedFactor="0.96" vaporized=""/>
    <tripinfo id="westEastBottom0.3" depart="60.00" departLane="westJunction_0" departPos="5.10" departSpeed="7.48" departDelay="0.23" arrival="195.00" arrivalLane="junctionEast_0" arrivalPos="492.80" arrivalSpeed="7.36" duration="135.00" routeLength="994.90" waitingTime="0.00" waitingCount="0" stopTime="0.00" timeLoss="14.83" rerouteNo="0" devices="tripinfo_westEastBottom0.3 ssm_westEastBottom0.3" vType="carCustom" speedFactor="0.83" vaporized=""/>
    <tripinfo id="southNorth.4" depart="35.00" departLane="southJunction_1" departPos="5.10" departSpeed="6.52" departDelay="0.71" arrival="198.00" arrivalLane="junctionNorth_0" arrivalPos="492.80" arrivalSpeed="7.33" duration="163.00" routeLength="995.01" waitingTime="16.00" waitingCount="2" stopTime="0.00" timeLoss="43.18" rerouteNo="0" devices="tripinfo_southNorth.4 ssm_southNorth.4" vType="carCustom" speedFactor="1.01" vaporized=""/>
    <tripinfo id="westEastTop.9" depart="45.00" departLane="westJunction_1" departPos="5.10" departSpeed="4.73" departDelay="1.66" arrival="198.00" arrivalLane="junctionEast_0" arrivalPos="492.80" arrivalSpeed="8.20" duration="153.00" routeLength="994.90" waitingTime="0.00" waitingCount="0" stopTime="0.00" timeLoss="33.45" rerouteNo="0" devices="tripinfo_westEastTop.9 ssm_westEastTop.9" vType="carCustom" speedFactor="1.13" vaporized=""/>
    <tripinfo id="westEastTop.10" depart="49.00" departLane="westJunction_1" departPos="5.10" departSpeed="4.01" departDelay="3.10" arrival="202.00" arrivalLane="junctionEast_0" arrivalPos="492.80" arrivalSpeed="7.67" duration="153.00" routeLength="994.90" waitingTime="1.00" waitingCount="1" stopTime="0.00" timeLoss="33.50" rerouteNo="0" devices="tripinfo_westEastTop.10 ssm_westEastTop.10" vType="carCustom" speedFactor="0.96" vaporized=""/>
    <tripinfo id="westEastTop.11" depart="53.00" departLane="westJunction_1" departPos="5.10" departSpeed="4.15" departDelay="6.40" arrival="204.00" arrivalLane="junctionEast_1" arrivalPos="492.80" arrivalSpeed="8.08" duration="151.00" routeLength="994.90" waitingTime="0.00" waitingCount="0" stopTime="0.00" timeLoss="30.84" rerouteNo="0" devices="tripinfo_westEastTop.11 ssm_westEastTop.11" vType="carCustom" speedFactor="0.93" vaporized=""/>
    <tripinfo id="westEastTop.12" depart="57.00" departLane="westJunction_1" departPos="5.10" departSpeed="3.55" departDelay="10.15" arrival="208.00" arrivalLane="junctionEast_0" arrivalPos="492.80" arrivalSpeed="8.16" duration="151.00" routeLength="994.90" waitingTime="0.00" waitingCount="0" stopTime="0.00" timeLoss="31.16" rerouteNo="0" devices="tripinfo_westEastTop.12 ssm_westEastTop.12" vType="carCustom" speedFactor="0.88" vaporized=""/>
    <tripinfo id="westEastTop.13" depart="61.00" departLane="westJunction_1" departPos="5.10" departSpeed="2.82" departDelay="11.68" arrival="214.00" arrivalLane="junctionEast_0" arrivalPos="492.80" arrivalSpeed="7.11" duration="153.00" routeLength="994.90" waitingTime="0.00" waitingCount="0" stopTime="0.00" timeLoss="32.76" rerouteNo="0" devices="tripinfo_westEastTop.13 ssm_westEastTop.13" vType="carCustom" speedFactor="1.11" vaporized=""/>
    <tripinfo id="westEastTop.14" depart="66.00" departLane="westJunction_1" departPos="5.10" departSpeed="3.06" departDelay="16.06" arrival="219.00" arrivalLane="junctionEast_0" arrivalPos="492.80" arrivalSpeed="7.97" duration="153.00" routeLength="994.90" waitingTime="0.00" waitingCount="0" stopTime="0.00" timeLoss="33.05" rerouteNo="0" devices="tripinfo_westEastTop.14 ssm_westEastTop.14" vType="carCustom" speedFactor="0.87" vaporized=""/>
    <tripinfo id="southEast.6" depart="80.00" departLane="southJunction_0" departPos="5.10" departSpeed="7.41" departDelay="1.29" arrival="220.00" arrivalLane="junctionEast_1" arrivalPos="492.80" arrivalSpeed="7.38" duration="140.00" routeLength="989.53" waitingTime="0.00" waitingCount="0" stopTime="0.00" timeLoss="20.78" rerouteNo="0" devices="tripinfo_southEast.6 ssm_southEast.6" vType="carCustom" speedFactor="1.07" vaporized=""/>
    <tripinfo id="southNorth.5" depart="51.00" departLane="southJunction_1" departPos="5.10" departSpeed="8.19" departDelay="0.56" arrival="222.00" arrivalLane="junctionNorth_0" arrivalPos="492.80" arrivalSpeed="7.61" duration="171.00" routeLength="995.01" waitingTime="30.00" waitingCount="2" stopTime="0.00" timeLoss="51.07" rerouteNo="0" devices="tripinfo_southNorth.5 ssm_southNorth.5" vType="carCustom" speedFactor="0.96" vaporized=""/>
    <tripinfo id="southEast.5" depart="78.00" departLane="southJunction_0" departPos="5.10" departSpeed="7.26" departDelay="0.90" arrival="224.00" arrivalLane="junctionEast_0" arrivalPos="492.80" arrivalSpeed="7.58" duration="146.00" routeLength="989.53" waitingTime="0.00" waitingCount="0" stopTime="0.00" timeLoss="26.80" rerouteNo="0" devices="tripinfo_southEast.5 ssm_southEast.5" vType="carCustom" speedFactor="0.88" vaporized=""/>
    <tripinfo id="southEast.7" depart="83.00" departLane="southJunction_0" departPos="5.10" departSpeed="4.99" departDelay="2.21" arrival="226.00" arrivalLane="junctionEast_1" arrivalPos="492.80" arrivalSpeed="7.74" duration="143.00" routeLength="989.53" waitingTime="0.00" waitingCount="0" stopTime="0.00" timeLoss="23.17" rerouteNo="0" devices="tripinfo_southEast.7 ssm_southEast.7" vType="carCustom" speedFactor="0.91" vaporized=""/>
    <tripinfo id="westEastTop.15" depart="70.00" departLane="westJunction_1" departPos="5.10" departSpeed="3.09" departDelay="8.46" arrival="230.00" arrivalLane="junctionEast_0" arrivalPos="492.80" arrivalSpeed="7.94" duration="160.00" routeLength="994.90" waitingTime="0.00" waitingCount="0" stopTime="0.00" timeLoss="39.71" rerouteNo="0" devices="tripinfo_westEastTop.15 ssm_westEastTop.15" vType="carCustom" speedFactor="1.10" vaporized=""/>
    <tripinfo id="southNorth.6" depart="68.00" departLane="southJunction_1" departPos="5.10" departSpeed="7.37" departDelay="0.82" arrival="232.00" arrivalLane="junctionNorth_0" arrivalPos="492.80" arrivalSpeed="7.36" duration="164.00" routeLength="995.01" waitingTime="22.00" waitingCount="2" stopTime="0.00" timeLoss="44.52" rerouteNo="0" devices="tripinfo_southNorth.6 ssm_southNorth.6" vType="carCustom" speedFactor="0.87" vaporized=""/>
    <tripinfo id="southEast.8" depart="91.00" departLane="southJunction_0" departPos="5.10" departSpeed="5.26" departDelay="0.16" arrival="234.00" arrivalLane="junctionEast_0" arrivalPos="492.80" arrivalSpeed="7.74" duration="143.00" routeLength="989.53" waitingTime="3.00" waitingCount="1" stopTime="0.00" timeLoss="23.75" rerouteNo="0" devices="tripinfo_southEast.8 ssm_southEast.8" vType="carCustom" speedFactor="0.90" vaporized=""/>
    <tripinfo id="westEastTop.16" depart="75.00" departLane="westJunction_1" departPos="5.10" departSpeed="3.34" departDelay="11.67" arrival="235.00" arrivalLane="junctionEast_1" arrivalPos="492.80" arrivalSpeed="8.32" duration="160.00" routeLength="994.90" waitingTime="0.00" waitingCount="0" stopTime="0.00" timeLoss="40.21" rerouteNo="0" devices="tripinfo_westEastTop.16 ssm_westEastTop.16" vType="carCustom" speedFactor="1.00" vaporized=""/>
    <tripinfo id="southEast.15" depart="159.00" departLane="southJunction_0" departPos="5.10" departSpeed="5.74" departDelay="0.94" arrival="235.00" arrivalLane="junctionEast_0" arrivalPos="492.80" arrivalSpeed="2.77" duration="76.00" routeLength="989.53" waitingTime="2.00" waitingCount="1" stopTime="0.00" timeLoss="15.79" rerouteNo="0" devices="tripinfo_southEast.15 ssm_southEast.15" vType="carCustom" speedFactor="1.01" vaporized="teleport"/>
    <tripinfo id="southNorth.7" depart="70.00" departLane="southJunction_1" departPos="5.10" departSpeed="7.29" departDelay="0.01" arrival="238.00" arrivalLane="junctionNorth_0" arrivalPos="492.80" arrivalSpeed="8.03" duration="168.00" routeLength="995.01" waitingTime="16.00" waitingCount="2" stopTime="0.00" timeLoss="47.62" rerouteNo="0" devices="tripinfo_southNorth.7 ssm_southNorth.7" vType="carCustom" speedFactor="0.99" vaporized=""/>
    <tripinfo id="westEastBottom0.4" depart="97.00" departLane="westJunction_0" departPos="5.10" departSpeed="7.50" departDelay="0.90" arrival="239.00" arrivalLane="junctionEast_0" arrivalPos="492.80" arrivalSpeed="8.05" duration="142.00" routeLength="994.90" waitingTime="0.00" waitingCount="0" stopTime="0.00" timeLoss="22.58" rerouteNo="0" devices="tripinfo_westEastBottom0.4 ssm_westEastBottom0.4" vType="carCustom" speedFactor="1.15" vaporized=""/>
    <tripinfo id="westEastTop.17" depart="80.00" departLane="westJunction_1" departPos="5.10" departSpeed="3.66" departDelay="13.91" arrival="240.00" arrivalLane="junctionEast_0" arrivalPos="492.80" arrivalSpeed="7.78" duration="160.00" routeLength="994.90" waitingTime="4.00" waitingCount="1" stopTime="0.00" timeLoss="40.32" rerouteNo="0" devices="tripinfo_westEastTop.17 ssm_westEastTop.17" vType="carCustom" speedFactor="0.87" vaporized=""/>
    <tripinfo id="southNorth.8" depart="90.00" departLane="southJunction_1" departPos="5.10" departSpeed="8.11" departDelay="0.97" arrival="243.00" arrivalLane="junctionNorth_0" arrivalPos="492.80" arrivalSpeed="7.25" duration="153.00" routeLength="995.01" waitingTime="3.00" waitingCount="3" stopTime="0.00" timeLoss="33.36" rerouteNo="0" devices="tripinfo_southNorth.8 ssm_southNorth.8" vType="carCustom" speedFactor="1.07" vaporized=""/>
    <tripinfo id="southEast.9" depart="101.00" departLane="southJunction_0" departPos="5.10" departSpeed="6.99" departDelay="0.17" arrival="245.00" arrivalLane="junctionEast_0" arrivalPos="492.80" arrivalSpeed="8.09" duration="144.00" routeLength="989.53" waitingTime="0.00" waitingCount="0" stopTime="0.00" timeLoss="24.52" rerouteNo="0" devices="tripinfo_southEast.9 ssm_southEast.9" vType="carCustom" speedFactor="1.14" vaporized=""/>
    <tripinfo id="southEast.10" depart="113.00" departLane="southJunction_0" departPos="5.10" departSpeed="7.31" departDelay="0.85" arrival="250.00" arrivalLane="junctionEast_0" arrivalPos="492.80" arrivalSpeed="7.11" duration="137.00" routeLength="989.53" waitingTime="0.00" waitingCount="0" stopTime="0.00" timeLoss="17.78" rerouteNo="0" devices="tripinfo_southEast.10 ssm_southEast.10" vType="carCustom" speedFactor="1.10" vaporized=""/>
    <tripinfo id="southNorth.9" depart="92.00" departLane="southJunction_1" departPos="5.10" departSpeed="8.07" departDelay="0.08" arrival="252.00" arrivalLane="junctionNorth_0" arrivalPos="492.80" arrivalSpeed="7.04" duration="160.00" routeLength="995.01" waitingTime="5.00" waitingCount="1" stopTime="0.00" timeLoss="40.26" rerouteNo="0" devices="tripinfo_southNorth.9 ssm_southNorth.9" vType="carCustom" speedFactor="1.16" vaporized=""/>
    <tripinfo id="westEastTop.18" depart="84.00" departLane="westJunction_1" departPos="5.10" departSpeed="3.76" departDelay="13.94" arrival="255.00" arrivalLane="junctionEast_0" arrivalPos="492.80" arrivalSpeed="7.45" duration="171.00" routeLength="994.90" waitingTime="5.00" waitingCount="1" stopTime="0.00" timeLoss="51.36" rerouteNo="0" devices="tripinfo_westEastTop.18 ssm_westEastTop.18" vType="carCustom" speedFactor="1.10" vaporized=""/>
    <tripinfo id="westEastBottom0.5" depart="119.00" departLane="westJunction_0" departPos="5.10" departSpeed="8.20" departDelay="0.81" arrival="260.00" arrivalLane="junctionEast_0" arrivalPos="492.80" arrivalSpeed="7.51" duration="141.00" routeLength="994.90" waitingTime="0.00" waitingCount="0" stopTime="0.00" timeLoss="21.21" rerouteNo="0" devices="tripinfo_westEastBottom0.5 ssm_westEastBottom0.5" vType="carCustom" speedFactor="0.95" vaporized=""/>
    <tripinfo id="westEastTop.19" depart="88.00" departLane="westJunction_1" departPos="5.10" departSpeed="2.93" departDelay="14.81" arrival="265.00" arrivalLane="junctionEast_0" arrivalPos="492.80" arrivalSpeed="8.30" duration="177.00" routeLength="994.90" waitingTime="5.00" waitingCount="1" stopTime="0.00" timeLoss="57.12" rerouteNo="0" devices="tripinfo_westEastTop.19 ssm_westEastTop.19" vType="carCustom" speedFactor="0.93" vaporized=""/>
    <tripinfo id="westEastTop.21" depart="98.00" departLane="westJunction_1" departPos="5.10" departSpeed="3.39" departDelay="22.68" arrival="267.00" arrivalLane="junctionEast_1" arrivalPos="492.80" arrivalSpeed="7.22" duration="169.00" routeLength="994.90" waitingTime="0.00" waitingCount="0" stopTime="0.00" timeLoss="49.26" rerouteNo="0" devices="tripinfo_westEastTop.21 ssm_westEastTop.21" vType="carCustom" speedFactor="1.04" vaporized=""/>
    <tripinfo id="westEastTop.20" depart="94.00" departLane="westJunction_1" departPos="5.10" departSpeed="3.49" departDelay="19.79" arrival="270.00" arrivalLane="junctionEast_0" arrivalPos="492.80" arrivalSpeed="7.86" duration="176.00" routeLength="994.90" waitingTime="2.00" waitingCount="1" stopTime="0.00" timeLoss="56.38" rerouteNo="0" devices="tripinfo_westEastTop.20 ssm_westEastTop.20" vType="carCustom" speedFactor="1.09" vaporized=""/>
    <tripinfo id="southNorth.10" depart="101.00" departLane="southJunction_1" departPos="5.10" departSpeed="6.79" departDelay="0.57" arrival="270.00" arrivalLane="junctionNorth_0" arrivalPos="492.80" arrivalSpeed="7.36" duration="169.00" routeLength="995.01" waitingTime="14.00" waitingCount="2" stopTime="0.00" timeLoss="49.19" rerouteNo="0" devices="tripinfo_southNorth.10 ssm_southNorth.10" vType="carCustom" speedFactor="0.86" vaporized=""/>
    <tripinfo id="southEast.11" depart="127.00" departLane="southJunction_0" departPos="5.10" departSpeed="7.57" departDelay="0.88" arrival="275.00" arrivalLane="junctionEast_0" arrivalPos="492.80" arrivalSpeed="7.54" duration="148.00" routeLength="989.53" waitingTime="1.00" waitingCount="1" stopTime="0.00" timeLoss="28.93" rerouteNo="0" devices="tripinfo_southEast.11 ssm_southEast.11" vType="carCustom" speedFactor="1.02" vaporized=""/>
    <tripinfo id="southNorth.11" depart="105.00" departLane="southJunction_1" departPos="5.10" departSpeed="7.06" departDelay="0.50" arrival="280.00" arrivalLane="junctionNorth_0" arrivalPos="492.80" arrivalSpeed="8.18" duration="175.00" routeLength="995.01" waitingTime="15.00" waitingCount="3" stopTime="0.00" timeLoss="54.67" rerouteNo="0" devices="tripinfo_southNorth.11 ssm_southNorth.11" vType="carCustom" speedFactor="0.87" vaporized=""/>
    <tripinfo id="southEast.12" depart="146.00" departLane="southJunction_0" departPos="5.10" departSpeed="7.70" departDelay="0.62" arrival="280.00" arrivalLane="junctionEast_0" arrivalPos="492.80" arrivalSpeed="7.53" duration="134.00" routeLength="989.53" waitingTime="0.00" waitingCount="0" stopTime="0.00" timeLoss="14.53" rerouteNo="0" devices="tripinfo_southEast.12 ssm_southEast.12" vType="carCustom" speedFactor="1.01" vaporized=""/>
    <tripinfo id="westEastTop.22" depart="103.00" departLane="westJunction_1" departPos="5.10" departSpeed="2.54" departDelay="21.54" arrival="284.00" arrivalLane="junctionEast_0" arrivalPos="492.80" arrivalSpeed="7.54" duration="181.00" routeLength="994.90" waitingTime="3.00" waitingCount="1" stopTime="0.00" timeLoss="61.56" rerouteNo="0" devices="tripinfo_westEastTop.22 ssm_westEastTop.22" vType="carCustom" speedFactor="1.16" vaporized=""/>
    <tripinfo id="westEastTop.24" depart="113.00" departLane="westJunction_1" departPos="5.10" departSpeed="3.55" departDelay="14.44" arrival="284.00" arrivalLane="junctionEast_1" arrivalPos="492.80" arrivalSpeed="8.11" duration="171.00" routeLength="994.90" waitingTime="1.00" waitingCount="1" stopTime="0.00" timeLoss="51.31" rerouteNo="0" devices="tripinfo_westEastTop.24 ssm_westEastTop.24" vType="carCustom" speedFactor="0.89" vaporized=""/>
    <tripinfo id="westEastTop.23" depart="108.00" departLane="westJunction_1" departPos="5.10" departSpeed="2.64" departDelay="16.72" arrival="289.00" arrivalLane="junctionEast_1" arrivalPos="492.80" arrivalSpeed="7.74" duration="181.00" routeLength="994.90" waitingTime="0.00" waitingCount="0" stopTime="0.00" timeLoss="61.22" rerouteNo="0" devices="tripinfo_westEastTop.23 ssm_westEastTop.23" vType="carCustom" speedFactor="0.94" vaporized=""/>
    <tripinfo id="southNorth.12" depart="108.00" departLane="southJunction_1" departPos="5.10" departSpeed="6.18" departDelay="0.29" arrival="289.00" arrivalLane="junctionNorth_0" arrivalPos="492.80" arrivalSpeed="7.63" duration="181.00" routeLength="995.01" waitingTime="15.00" waitingCount="3" stopTime="0.00" timeLoss="61.00" rerouteNo="0" devices="tripinfo_southNorth.12 ssm_southNorth.12" vType="carCustom" speedFactor="0.93" vaporized=""/>
    <tripinfo id="southEast.13" depart="151.00" departLane="southJunction_0" departPos="5.10" departSpeed="8.13" departDelay="0.31" arrival="290.00" arrivalLane="junctionEast_0" arrivalPos="492.80" arrivalSpeed="7.30" duration="139.00" routeLength="989.53" waitingTime="0.00" waitingCount="0" stopTime="0.00" timeLoss="18.99" rerouteNo="0" devices="tripinfo_southEast.13 ssm_southEast.13" vType="carCustom" speedFactor="0.84" vaporized=""/>
    <tripinfo id="southNorth.13" depart="124.00" departLane="southJunction_1" departPos="5.10" departSpeed="7.19" departDelay="0.47" arrival="294.00" arrivalLane="junctionNorth_0" arrivalPos="492.80" arrivalSpeed="7.47" duration="170.00" routeLength="995.01" waitingTime="11.00" waitingCount="3" stopTime="0.00" timeLoss="50.28" rerouteNo="0" devices="tripinfo_southNorth.13 ssm_southNorth.13" vType="carCustom" speedFactor="0.98" vaporized=""/>
    <tripinfo id="westEastTop.25" depart="117.00" departLane="westJunction_1" departPos="5.10" departSpeed="3.19" departDelay="16.59" arrival="295.00" arrivalLane="junctionEast_0" arrivalPos="492.80" arrivalSpeed="7.99" duration="178.00" routeLength="994.90" waitingTime="0.00" waitingCount="0" stopTime="0.00" timeLoss="58.29" rerouteNo="0" devices="tripinfo_westEastTop.25 ssm_westEastTop.25" vType="carCustom" speedFactor="1.09" vaporized=""/>
    <tripinfo id="westEastTop.26" depart="121.00" departLane="westJunction_1" departPos="5.10" departSpeed="3.26" departDelay="7.74" arrival="295.00" arrivalLane="junctionEast_1" arrivalPos="492.80" arrivalSpeed="8.27" duration="174.00" routeLength="994.90" waitingTime="1.00" waitingCount="1" stopTime="0.00" timeLoss="54.05" rerouteNo="0" devices="tripinfo_westEastTop.26 ssm_westEastTop.26" vType="carCustom" speedFactor="0.93" vaporized=""/>
    <tripinfo id="southEast.14" depart="153.00" departLane="southJunction_0" departPos="5.10" departSpeed="7.28" departDelay="1.01" arrival="301.00" arrivalLane="junctionEast_0" arrivalPos="492.80" arrivalSpeed="7.20" duration="148.00" routeLength="989.53" waitingTime="0.00" waitingCount="0" stopTime="0.00" timeLoss="27.98" rerouteNo="0" devices="tripinfo_southEast.14 ssm_southEast.14" vType="carCustom" speedFactor="0.90" vaporized=""/>