<?xml version="1.0" encoding="UTF-8"?>

<!-- generated on 2025-04-29 10:26:24 by Eclipse SUMO sumo Version 1.20.0
<configuration xmlns:xsi="http://www.w3.org/2001/XMLSchema-instance" xsi:noNamespaceSchemaLocation="http://sumo.dlr.de/xsd/sumoConfiguration.xsd">

    <input>
        <net-file value="nets/2lane_unprotected_right/2lane_unprotected_right.net.xml"/>
        <route-files value="nets/2lane_unprotected_right/2lane_unprotected_right.rou.xml"/>
    </input>

    <output>
        <tripinfo-output value="traces/transs50f1_s50_f0.5_random/0261_tripinfo.xml"/>
        <collision-output value="traces/transs50f1_s50_f0.5_random/0261_collisions.xml"/>
        <statistic-output value="traces/transs50f1_s50_f0.5_random/0261_statistics.xml"/>
    </output>

    <processing>
        <collision.action value="teleport"/>
        <collision.check-junctions value="true"/>
        <time-to-teleport value="-1"/>
        <waiting-time-memory value="1000"/>
        <max-depart-delay value="-1"/>
        <default.speeddev value="0.1"/>
    </processing>

    <report>
        <no-warnings value="true"/>
    </report>

    <ssm_device>
        <device.ssm.probability value="1.0"/>
        <device.ssm.measures value="BR"/>
        <device.ssm.file value="/Users/finn/Code/CausalKnowledgeTransfer-4-SafeRL/traces/transs50f1_s50_f0.5_random/0261_ssm.xml"/>
    </ssm_device>

    <traci_server>
        <remote-port value="49252"/>
    </traci_server>

    <random_number>
        <random value="true"/>
    </random_number>

</configuration>
-->

<tripinfos xmlns:xsi="http://www.w3.org/2001/XMLSchema-instance" xsi:noNamespaceSchemaLocation="http://sumo.dlr.de/xsd/tripinfo_file.xsd">
    <tripinfo id="westEastTop.0" depart="3.00" departLane="westJunction_1" departPos="5.10" departSpeed="13.89" departDelay="0.92" arrival="79.00" arrivalLane="junctionEast_0" arrivalPos="492.80" arrivalSpeed="13.85" duration="76.00" routeLength="994.90" waitingTime="0.00" waitingCount="0" stopTime="0.00" timeLoss="3.48" rerouteNo="0" devices="tripinfo_westEastTop.0 ssm_westEastTop.0" vType="carCustom" speedFactor="0.89" vaporized=""/>
    <tripinfo id="westEastTop.1" depart="5.00" departLane="westJunction_1" departPos="5.10" departSpeed="13.11" departDelay="0.27" arrival="85.00" arrivalLane="junctionEast_1" arrivalPos="492.80" arrivalSpeed="12.98" duration="80.00" routeLength="994.90" waitingTime="0.00" waitingCount="0" stopTime="0.00" timeLoss="7.54" rerouteNo="0" devices="tripinfo_westEastTop.1 ssm_westEastTop.1" vType="carCustom" speedFactor="1.20" vaporized=""/>
    <tripinfo id="westEastBottom0.0" depart="7.00" departLane="westJunction_0" departPos="5.10" departSpeed="13.89" departDelay="0.90" arrival="85.00" arrivalLane="junctionEast_0" arrivalPos="492.80" arrivalSpeed="13.42" duration="78.00" routeLength="994.90" waitingTime="0.00" waitingCount="0" stopTime="0.00" timeLoss="5.52" rerouteNo="0" devices="tripinfo_westEastBottom0.0 ssm_westEastBottom0.0" vType="carCustom" speedFactor="0.91" vaporized=""/>
    <tripinfo id="southNorth.0" depart="6.00" departLane="southJunction_1" departPos="5.10" departSpeed="13.89" departDelay="0.85" arrival="89.00" arrivalLane="junctionNorth_0" arrivalPos="492.80" arrivalSpeed="12.88" duration="83.00" routeLength="995.01" waitingTime="1.00" waitingCount="1" stopTime="0.00" timeLoss="11.03" rerouteNo="0" devices="tripinfo_southNorth.0 ssm_southNorth.0" vType="carCustom" speedFactor="1.11" vaporized=""/>
    <tripinfo id="westEastTop.2" depart="10.00" departLane="westJunction_1" departPos="5.10" departSpeed="8.90" departDelay="0.96" arrival="92.00" arrivalLane="junctionEast_0" arrivalPos="492.80" arrivalSpeed="13.02" duration="82.00" routeLength="994.90" waitingTime="0.00" waitingCount="0" stopTime="0.00" timeLoss="9.92" rerouteNo="0" devices="tripinfo_westEastTop.2 ssm_westEastTop.2" vType="carCustom" speedFactor="0.95" vaporized=""/>
    <tripinfo id="southEast.3" depart="35.00" departLane="southJunction_0" departPos="5.10" departSpeed="10.15" departDelay="0.53" arrival="92.00" arrivalLane="junctionEast_0" arrivalPos="492.80" arrivalSpeed="5.06" duration="57.00" routeLength="989.53" waitingTime="4.00" waitingCount="1" stopTime="0.00" timeLoss="20.80" rerouteNo="0" devices="tripinfo_southEast.3 ssm_southEast.3" vType="carCustom" speedFactor="0.99" vaporized="teleport"/>
    <tripinfo id="westEastBottom0.1" depart="9.00" departLane="westJunction_0" departPos="5.10" departSpeed="13.11" departDelay="1.91" arrival="97.00" arrivalLane="junctionEast_0" arrivalPos="492.80" arrivalSpeed="13.31" duration="88.00" routeLength="994.90" waitingTime="0.00" waitingCount="0" stopTime="0.00" timeLoss="16.25" rerouteNo="0" devices="tripinfo_westEastBottom0.1 ssm_westEastBottom0.1" vType="carCustom" speedFactor="1.07" vaporized=""/>
    <tripinfo id="southNorth.1" depart="16.00" departLane="southJunction_1" departPos="5.10" departSpeed="13.05" departDelay="0.18" arrival="100.00" arrivalLane="junctionNorth_0" arrivalPos="492.80" arrivalSpeed="13.34" duration="84.00" routeLength="995.01" waitingTime="2.00" waitingCount="1" stopTime="0.00" timeLoss="11.70" rerouteNo="0" devices="tripinfo_southNorth.1 ssm_southNorth.1" vType="carCustom" speedFactor="1.10" vaporized=""/>
    <tripinfo id="southEast.0" depart="19.00" departLane="southJunction_0" departPos="5.10" departSpeed="13.89" departDelay="0.20" arrival="100.00" arrivalLane="junctionEast_0" arrivalPos="492.80" arrivalSpeed="13.63" duration="81.00" routeLength="989.53" waitingTime="0.00" waitingCount="0" stopTime="0.00" timeLoss="8.65" rerouteNo="0" devices="tripinfo_southEast.0 ssm_southEast.0" vType="carCustom" speedFactor="0.89" vaporized=""/>
    <tripinfo id="westEastBottom0.2" depart="12.00" departLane="westJunction_0" departPos="5.10" departSpeed="8.62" departDelay="0.57" arrival="106.00" arrivalLane="junctionEast_0" arrivalPos="492.80" arrivalSpeed="12.95" duration="94.00" routeLength="994.90" waitingTime="3.00" waitingCount="1" stopTime="0.00" timeLoss="21.49" rerouteNo="0" devices="tripinfo_westEastBottom0.2 ssm_westEastBottom0.2" vType="carCustom" speedFactor="0.87" vaporized=""/>
    <tripinfo id="westEastTop.3" depart="17.00" departLane="westJunction_1" departPos="5.10" departSpeed="10.28" departDelay="0.30" arrival="106.00" arrivalLane="junctionEast_1" arrivalPos="492.80" arrivalSpeed="13.15" duration="89.00" routeLength="994.90" waitingTime="5.00" waitingCount="1" stopTime="0.00" timeLoss="16.40" rerouteNo="0" devices="tripinfo_westEastTop.3 ssm_westEastTop.3" vType="carCustom" speedFactor="1.03" vaporized=""/>
    <tripinfo id="southNorth.2" depart="21.00" departLane="southJunction_1" departPos="5.10" departSpeed="12.86" departDelay="0.32" arrival="110.00" arrivalLane="junctionNorth_0" arrivalPos="492.80" arrivalSpeed="12.74" duration="89.00" routeLength="995.01" waitingTime="3.00" waitingCount="1" stopTime="0.00" timeLoss="16.97" rerouteNo="0" devices="tripinfo_southNorth.2 ssm_southNorth.2" vType="carCustom" speedFactor="1.00" vaporized=""/>
    <tripinfo id="southEast.1" depart="21.00" departLane="southJunction_0" departPos="5.10" departSpeed="13.11" departDelay="0.24" arrival="111.00" arrivalLane="junctionEast_0" arrivalPos="492.80" arrivalSpeed="13.67" duration="90.00" routeLength="989.53" waitingTime="2.00" waitingCount="1" stopTime="0.00" timeLoss="17.86" rerouteNo="0" devices="tripinfo_southEast.1 ssm_southEast.1" vType="carCustom" speedFactor="0.97" vaporized=""/>
    <tripinfo id="westEastTop.4" depart="23.00" departLane="westJunction_1" departPos="5.10" departSpeed="11.93" departDelay="0.19" arrival="117.00" arrivalLane="junctionEast_0" arrivalPos="492.80" arrivalSpeed="13.08" duration="94.00" routeLength="994.90" waitingTime="4.00" waitingCount="1" stopTime="0.00" timeLoss="22.24" rerouteNo="0" devices="tripinfo_westEastTop.4 ssm_westEastTop.4" vType="carCustom" speedFactor="1.00" vaporized=""/>
    <tripinfo id="westEastTop.5" depart="25.00" departLane="westJunction_1" departPos="5.10" departSpeed="11.63" departDelay="1.02" arrival="120.00" arrivalLane="junctionEast_0" arrivalPos="492.80" arrivalSpeed="13.81" duration="95.00" routeLength="994.90" waitingTime="0.00" waitingCount="0" stopTime="0.00" timeLoss="22.76" rerouteNo="0" devices="tripinfo_westEastTop.5 ssm_westEastTop.5" vType="carCustom" speedFactor="0.89" vaporized=""/>
    <tripinfo id="southNorth.3" depart="25.00" departLane="southJunction_1" departPos="5.10" departSpeed="12.60" departDelay="0.91" arrival="121.00" arrivalLane="junctionNorth_0" arrivalPos="492.80" arrivalSpeed="13.87" duration="96.00" routeLength="995.01" waitingTime="5.00" waitingCount="1" stopTime="0.00" timeLoss="23.85" rerouteNo="0" devices="tripinfo_southNorth.3 ssm_southNorth.3" vType="carCustom" speedFactor="0.83" vaporized=""/>
    <tripinfo id="westEastBottom0.3" depart="15.00" departLane="westJunction_0" departPos="5.10" departSpeed="7.10" departDelay="1.74" arrival="124.00" arrivalLane="junctionEast_0" arrivalPos="492.80" arrivalSpeed="12.97" duration="109.00" routeLength="994.90" waitingTime="5.00" waitingCount="1" stopTime="0.00" timeLoss="36.64" rerouteNo="0" devices="tripinfo_westEastBottom0.3 ssm_westEastBottom0.3" vType="carCustom" speedFactor="0.94" vaporized=""/>
    <tripinfo id="westEastBottom0.4" depart="22.00" departLane="westJunction_0" departPos="5.10" departSpeed="8.38" departDelay="0.02" arrival="125.00" arrivalLane="junctionEast_1" arrivalPos="492.80" arrivalSpeed="13.27" duration="103.00" routeLength="994.90" waitingTime="0.00" waitingCount="0" stopTime="0.00" timeLoss="31.27" rerouteNo="0" devices="tripinfo_westEastBottom0.4 ssm_westEastBottom0.4" vType="carCustom" speedFactor="0.98" vaporized=""/>
    <tripinfo id="southEast.2" depart="25.00" departLane="southJunction_0" departPos="5.10" departSpeed="8.85" departDelay="0.65" arrival="129.00" arrivalLane="junctionEast_0" arrivalPos="492.80" arrivalSpeed="13.77" duration="104.00" routeLength="989.53" waitingTime="4.00" waitingCount="1" stopTime="0.00" timeLoss="31.43" rerouteNo="0" devices="tripinfo_southEast.2 ssm_southEast.2" vType="carCustom" speedFactor="0.92" vaporized=""/>
    <tripinfo id="southNorth.4" depart="27.00" departLane="southJunction_1" departPos="5.10" departSpeed="10.30" departDelay="1.47" arrival="131.00" arrivalLane="junctionNorth_0" arrivalPos="492.80" arrivalSpeed="13.15" duration="104.00" routeLength="995.01" waitingTime="4.00" waitingCount="1" stopTime="0.00" timeLoss="31.97" rerouteNo="0" devices="tripinfo_southNorth.4 ssm_southNorth.4" vType="carCustom" speedFactor="1.16" vaporized=""/>
    <tripinfo id="westEastTop.6" depart="30.00" departLane="westJunction_1" departPos="5.10" departSpeed="7.82" departDelay="0.67" arrival="131.00" arrivalLane="junctionEast_1" arrivalPos="492.80" arrivalSpeed="12.86" duration="101.00" routeLength="994.90" waitingTime="1.00" waitingCount="1" stopTime="0.00" timeLoss="29.06" rerouteNo="0" devices="tripinfo_westEastTop.6 ssm_westEastTop.6" vType="carCustom" speedFactor="0.91" vaporized=""/>
    <tripinfo id="westEastBottom0.5" depart="24.00" departLane="westJunction_0" departPos="5.10" departSpeed="8.12" departDelay="0.73" arrival="134.00" arrivalLane="junctionEast_0" arrivalPos="492.80" arrivalSpeed="12.85" duration="110.00" routeLength="994.90" waitingTime="2.00" waitingCount="1" stopTime="0.00" timeLoss="38.13" rerouteNo="0" devices="tripinfo_westEastBottom0.5 ssm_westEastBottom0.5" vType="carCustom" speedFactor="0.97" vaporized=""/>
    <tripinfo id="westEastBottom0.6" depart="28.00" departLane="westJunction_0" departPos="5.10" departSpeed="6.86" departDelay="0.96" arrival="137.00" arrivalLane="junctionEast_0" arrivalPos="492.80" arrivalSpeed="13.71" duration="109.00" routeLength="994.90" waitingTime="0.00" waitingCount="0" stopTime="0.00" timeLoss="36.68" rerouteNo="0" devices="tripinfo_westEastBottom0.6 ssm_westEastBottom0.6" vType="carCustom" speedFactor="1.13" vaporized=""/>
    <tripinfo id="westEastBottom0.8" depart="40.00" departLane="westJunction_0" departPos="5.10" departSpeed="7.61" departDelay="0.44" arrival="140.00" arrivalLane="junctionEast_0" arrivalPos="492.80" arrivalSpeed="13.80" duration="100.00" routeLength="994.90" waitingTime="0.00" waitingCount="0" stopTime="0.00" timeLoss="28.01" rerouteNo="0" devices="tripinfo_westEastBottom0.8 ssm_westEastBottom0.8" vType="carCustom" speedFactor="1.03" vaporized=""/>
    <tripinfo id="southNorth.5" depart="33.00" departLane="southJunction_1" departPos="5.10" departSpeed="8.36" departDelay="0.24" arrival="141.00" arrivalLane="junctionNorth_0" arrivalPos="492.80" arrivalSpeed="13.30" duration="108.00" routeLength="995.01" waitingTime="6.00" waitingCount="2" stopTime="0.00" timeLoss="35.67" rerouteNo="0" devices="tripinfo_southNorth.5 ssm_southNorth.5" vType="carCustom" speedFactor="1.05" vaporized=""/>
    <tripinfo id="westEastBottom0.7" depart="31.00" departLane="westJunction_0" departPos="5.10" departSpeed="6.42" departDelay="2.61" arrival="143.00" arrivalLane="junctionEast_1" arrivalPos="492.80" arrivalSpeed="13.28" duration="112.00" routeLength="994.90" waitingTime="4.00" waitingCount="1" stopTime="0.00" timeLoss="39.51" rerouteNo="0" devices="tripinfo_westEastBottom0.7 ssm_westEastBottom0.7" vType="carCustom" speedFactor="0.93" vaporized=""/>
    <tripinfo id="southEast.4" depart="37.00" departLane="southJunction_0" departPos="5.10" departSpeed="13.04" departDelay="2.12" arrival="145.00" arrivalLane="junctionEast_0" arrivalPos="492.80" arrivalSpeed="13.21" duration="108.00" routeLength="989.53" waitingTime="5.00" waitingCount="1" stopTime="0.00" timeLoss="36.27" rerouteNo="0" devices="tripinfo_southEast.4 ssm_southEast.4" vType="carCustom" speedFactor="1.05" vaporized=""/>
    <tripinfo id="southNorth.6" depart="37.00" departLane="southJunction_1" departPos="5.10" departSpeed="9.46" departDelay="0.53" arrival="147.00" arrivalLane="junctionNorth_0" arrivalPos="492.80" arrivalSpeed="13.22" duration="110.00" routeLength="995.01" waitingTime="2.00" waitingCount="1" stopTime="0.00" timeLoss="37.86" rerouteNo="0" devices="tripinfo_southNorth.6 ssm_southNorth.6" vType="carCustom" speedFactor="1.00" vaporized=""/>
    <tripinfo id="westEastTop.7" depart="44.00" departLane="westJunction_1" departPos="5.10" departSpeed="8.42" departDelay="0.48" arrival="148.00" arrivalLane="junctionEast_0" arrivalPos="492.80" arrivalSpeed="13.21" duration="104.00" routeLength="994.90" waitingTime="3.00" waitingCount="1" stopTime="0.00" timeLoss="32.09" rerouteNo="0" devices="tripinfo_westEastTop.7 ssm_westEastTop.7" vType="carCustom" speedFactor="0.92" vaporized=""/>
    <tripinfo id="westEastBottom0.9" depart="49.00" departLane="westJunction_0" departPos="5.10" departSpeed="10.64" departDelay="0.73" arrival="151.00" arrivalLane="junctionEast_0" arrivalPos="492.80" arrivalSpeed="12.89" duration="102.00" routeLength="994.90" waitingTime="4.00" waitingCount="1" stopTime="0.00" timeLoss="30.29" rerouteNo="0" devices="tripinfo_westEastBottom0.9 ssm_westEastBottom0.9" vType="carCustom" speedFactor="1.01" vaporized=""/>
    <tripinfo id="southNorth.7" depart="49.00" departLane="southJunction_1" departPos="5.10" departSpeed="9.39" departDelay="0.82" arrival="153.00" arrivalLane="junctionNorth_0" arrivalPos="492.80" arrivalSpeed="12.84" duration="104.00" routeLength="995.01" waitingTime="4.00" waitingCount="2" stopTime="0.00" timeLoss="31.83" rerouteNo="0" devices="tripinfo_southNorth.7 ssm_southNorth.7" vType="carCustom" speedFactor="1.11" vaporized=""/>
    <tripinfo id="westEastTop.8" depart="53.00" departLane="westJunction_1" departPos="5.10" departSpeed="11.33" departDelay="0.06" arrival="154.00" arrivalLane="junctionEast_1" arrivalPos="492.80" arrivalSpeed="12.89" duration="101.00" routeLength="994.90" waitingTime="1.00" waitingCount="1" stopTime="0.00" timeLoss="28.56" rerouteNo="0" devices="tripinfo_westEastTop.8 ssm_westEastTop.8" vType="carCustom" speedFactor="1.05" vaporized=""/>
    <tripinfo id="southEast.5" depart="49.00" departLane="southJunction_0" departPos="5.10" departSpeed="10.67" departDelay="0.40" arrival="157.00" arrivalLane="junctionEast_0" arrivalPos="492.80" arrivalSpeed="13.71" duration="108.00" routeLength="989.53" waitingTime="8.00" waitingCount="2" stopTime="0.00" timeLoss="35.35" rerouteNo="0" devices="tripinfo_southEast.5 ssm_southEast.5" vType="carCustom" speedFactor="0.99" vaporized=""/>
    <tripinfo id="westEastTop.9" depart="59.00" departLane="westJunction_1" departPos="5.10" departSpeed="12.65" departDelay="0.94" arrival="159.00" arrivalLane="junctionEast_1" arrivalPos="492.80" arrivalSpeed="12.69" duration="100.00" routeLength="994.90" waitingTime="2.00" waitingCount="1" stopTime="0.00" timeLoss="28.17" rerouteNo="0" devices="tripinfo_westEastTop.9 ssm_westEastTop.9" vType="carCustom" speedFactor="1.04" vaporized=""/>
    <tripinfo id="southEast.6" depart="74.00" departLane="southJunction_0" departPos="5.10" departSpeed="11.47" departDelay="0.32" arrival="162.00" arrivalLane="junctionEast_0" arrivalPos="492.80" arrivalSpeed="12.76" duration="88.00" routeLength="989.53" waitingTime="0.00" waitingCount="0" stopTime="0.00" timeLoss="15.59" rerouteNo="0" devices="tripinfo_southEast.6 ssm_southEast.6" vType="carCustom" speedFactor="1.11" vaporized=""/>
    <tripinfo id="westEastTop.10" depart="63.00" departLane="westJunction_1" departPos="5.10" departSpeed="12.72" departDelay="0.92" arrival="165.00" arrivalLane="junctionEast_1" arrivalPos="492.80" arrivalSpeed="13.31" duration="102.00" routeLength="994.90" waitingTime="0.00" waitingCount="0" stopTime="0.00" timeLoss="29.86" rerouteNo="0" devices="tripinfo_westEastTop.10 ssm_westEastTop.10" vType="carCustom" speedFactor="1.12" vaporized=""/>
    <tripinfo id="southNorth.8" depart="55.00" departLane="southJunction_1" departPos="5.10" departSpeed="12.65" departDelay="0.25" arrival="166.00" arrivalLane="junctionNorth_0" arrivalPos="492.80" arrivalSpeed="13.51" duration="111.00" routeLength="995.01" waitingTime="10.00" waitingCount="1" stopTime="0.00" timeLoss="39.06" rerouteNo="0" devices="tripinfo_southNorth.8 ssm_southNorth.8" vType="carCustom" speedFactor="0.85" vaporized=""/>
    <tripinfo id="westEastTop.11" depart="65.00" departLane="westJunction_1" departPos="5.10" departSpeed="10.96" departDelay="2.36" arrival="168.00" arrivalLane="junctionEast_0" arrivalPos="492.80" arrivalSpeed="13.00" duration="103.00" routeLength="994.90" waitingTime="0.00" waitingCount="0" stopTime="0.00" timeLoss="30.48" rerouteNo="0" devices="tripinfo_westEastTop.11 ssm_westEastTop.11" vType="carCustom" speedFactor="1.00" vaporized=""/>
    <tripinfo id="westEastTop.12" depart="67.00" departLane="westJunction_1" departPos="5.10" departSpeed="7.20" departDelay="3.43" arrival="173.00" arrivalLane="junctionEast_0" arrivalPos="492.80" arrivalSpeed="13.45" duration="106.00" routeLength="994.90" waitingTime="2.00" waitingCount="1" stopTime="0.00" timeLoss="34.08" rerouteNo="0" devices="tripinfo_westEastTop.12 ssm_westEastTop.12" vType="carCustom" speedFactor="1.08" vaporized=""/>
    <tripinfo id="westEastTop.13" depart="70.00" departLane="westJunction_1" departPos="5.10" departSpeed="5.03" departDelay="5.02" arrival="174.00" arrivalLane="junctionEast_1" arrivalPos="492.80" arrivalSpeed="13.73" duration="104.00" routeLength="994.90" waitingTime="0.00" waitingCount="0" stopTime="0.00" timeLoss="32.28" rerouteNo="0" devices="tripinfo_westEastTop.13 ssm_westEastTop.13" vType="carCustom" speedFactor="1.11" vaporized=""/>
    <tripinfo id="westEastBottom0.10" depart="95.00" departLane="westJunction_0" departPos="5.10" departSpeed="3.93" departDelay="0.73" arrival="179.00" arrivalLane="junctionEast_0" arrivalPos="492.80" arrivalSpeed="13.17" duration="84.00" routeLength="994.90" waitingTime="0.00" waitingCount="0" stopTime="0.00" timeLoss="11.69" rerouteNo="0" devices="tripinfo_westEastBottom0.10 ssm_westEastBottom0.10" vType="carCustom" speedFactor="0.93" vaporized=""/>
    <tripinfo id="westEastTop.14" depart="74.00" departLane="westJunction_1" departPos="5.10" departSpeed="4.53" departDelay="5.66" arrival="181.00" arrivalLane="junctionEast_0" arrivalPos="492.80" arrivalSpeed="13.11" duration="107.00" routeLength="994.90" waitingTime="0.00" waitingCount="0" stopTime="0.00" timeLoss="34.50" rerouteNo="0" devices="tripinfo_westEastTop.14 ssm_westEastTop.14" vType="carCustom" speedFactor="1.01" vaporized=""/>
    <tripinfo id="westEastTop.15" depart="83.00" departLane="westJunction_1" departPos="5.10" departSpeed="7.26" departDelay="0.18" arrival="185.00" arrivalLane="junctionEast_0" arrivalPos="492.80" arrivalSpeed="12.87" duration="102.00" routeLength="994.90" waitingTime="0.00" waitingCount="0" stopTime="0.00" timeLoss="29.60" rerouteNo="0" devices="tripinfo_westEastTop.15 ssm_westEastTop.15" vType="carCustom" speedFactor="0.94" vaporized=""/>
    <tripinfo id="westEastTop.16" depart="85.00" departLane="westJunction_1" departPos="5.10" departSpeed="9.38" departDelay="0.05" arrival="190.00" arrivalLane="junctionEast_0" arrivalPos="492.80" arrivalSpeed="13.05" duration="105.00" routeLength="994.90" waitingTime="0.00" waitingCount="0" stopTime="0.00" timeLoss="33.34" rerouteNo="0" devices="tripinfo_westEastTop.16 ssm_westEastTop.16" vType="carCustom" speedFactor="0.97" vaporized=""/>
    <tripinfo id="westEastTop.17" depart="88.00" departLane="westJunction_1" departPos="5.10" departSpeed="6.29" departDelay="2.03" arrival="190.00" arrivalLane="junctionEast_1" arrivalPos="492.80" arrivalSpeed="13.12" duration="102.00" routeLength="994.90" waitingTime="0.00" waitingCount="0" stopTime="0.00" timeLoss="29.84" rerouteNo="0" devices="tripinfo_westEastTop.17 ssm_westEastTop.17" vType="carCustom" speedFactor="0.90" vaporized=""/>
    <tripinfo id="westEastTop.18" depart="91.00" departLane="westJunction_1" departPos="5.10" departSpeed="4.95" departDelay="2.35" arrival="196.00" arrivalLane="junctionEast_0" arrivalPos="492.80" arrivalSpeed="13.06" duration="105.00" routeLength="994.90" waitingTime="0.00" waitingCount="0" stopTime="0.00" timeLoss="32.93" rerouteNo="0" devices="tripinfo_westEastTop.18 ssm_westEastTop.18" vType="carCustom" speedFactor="1.17" vaporized=""/>
    <tripinfo id="southEast.9" depart="159.00" departLane="southJunction_0" departPos="5.10" departSpeed="13.55" departDelay="0.80" arrival="199.00" arrivalLane="junctionEast_0" arrivalPos="492.80" arrivalSpeed="7.17" duration="40.00" routeLength="989.53" waitingTime="0.00" waitingCount="0" stopTime="0.00" timeLoss="3.80" rerouteNo="0" devices="tripinfo_southEast.9 ssm_southEast.9" vType="carCustom" speedFactor="1.28" vaporized="teleport"/>
    <tripinfo id="westEastTop.19" depart="98.00" departLane="westJunction_1" departPos="5.10" departSpeed="5.15" departDelay="0.47" arrival="202.00" arrivalLane="junctionEast_0" arrivalPos="492.80" arrivalSpeed="13.24" duration="104.00" routeLength="994.90" waitingTime="0.00" waitingCount="0" stopTime="0.00" timeLoss="31.76" rerouteNo="0" devices="tripinfo_westEastTop.19 ssm_westEastTop.19" vType="carCustom" speedFactor="1.02" vaporized=""/>
    <tripinfo id="westEastTop.20" depart="106.00" departLane="westJunction_1" departPos="5.10" departSpeed="6.60" departDelay="0.77" arrival="204.00" arrivalLane="junctionEast_1" arrivalPos="492.80" arrivalSpeed="12.85" duration="98.00" routeLength="994.90" waitingTime="0.00" waitingCount="0" stopTime="0.00" timeLoss="25.47" rerouteNo="0" devices="tripinfo_westEastTop.20 ssm_westEastTop.20" vType="carCustom" speedFactor="1.06" vaporized=""/>
    <tripinfo id="southEast.7" depart="126.00" departLane="southJunction_0" departPos="5.10" departSpeed="13.89" departDelay="0.40" arrival="208.00" arrivalLane="junctionEast_0" arrivalPos="492.80" arrivalSpeed="13.38" duration="82.00" routeLength="989.53" waitingTime="0.00" waitingCount="0" stopTime="0.00" timeLoss="8.90" rerouteNo="0" devices="tripinfo_southEast.7 ssm_southEast.7" vType="carCustom" speedFactor="1.01" vaporized=""/>
    <tripinfo id="southNorth.9" depart="69.00" departLane="southJunction_1" departPos="5.10" departSpeed="12.45" departDelay="0.99" arrival="210.00" arrivalLane="junctionNorth_0" arrivalPos="492.80" arrivalSpeed="13.23" duration="141.00" routeLength="995.01" waitingTime="46.00" waitingCount="2" stopTime="0.00" timeLoss="68.48" rerouteNo="0" devices="tripinfo_southNorth.9 ssm_southNorth.9" vType="carCustom" speedFactor="0.98" vaporized=""/>
    <tripinfo id="southEast.8" depart="133.00" departLane="southJunction_0" departPos="5.10" departSpeed="13.17" departDelay="0.16" arrival="213.00" arrivalLane="junctionEast_0" arrivalPos="492.80" arrivalSpeed="12.60" duration="80.00" routeLength="989.53" waitingTime="0.00" waitingCount="0" stopTime="0.00" timeLoss="8.26" rerouteNo="0" devices="tripinfo_southEast.8 ssm_southEast.8" vType="carCustom" speedFactor="1.06" vaporized=""/>
    <tripinfo id="westEastTop.21" depart="108.00" departLane="westJunction_1" departPos="5.10" departSpeed="8.73" departDelay="2.35" arrival="214.00" arrivalLane="junctionEast_1" arrivalPos="492.80" arrivalSpeed="12.88" duration="106.00" routeLength="994.90" waitingTime="3.00" waitingCount="1" stopTime="0.00" timeLoss="34.28" rerouteNo="0" devices="tripinfo_westEastTop.21 ssm_westEastTop.21" vType="carCustom" speedFactor="1.08" vaporized=""/>
    <tripinfo id="southNorth.10" depart="96.00" departLane="southJunction_1" departPos="5.10" departSpeed="13.88" departDelay="0.83" arrival="216.00" arrivalLane="junctionNorth_0" arrivalPos="492.80" arrivalSpeed="12.97" duration="120.00" routeLength="995.01" waitingTime="29.00" waitingCount="1" stopTime="0.00" timeLoss="47.44" rerouteNo="0" devices="tripinfo_southNorth.10 ssm_southNorth.10" vType="carCustom" speedFactor="0.94" vaporized=""/>
    <tripinfo id="westEastBottom0.11" depart="132.00" departLane="westJunction_0" departPos="5.10" departSpeed="13.66" departDelay="0.59" arrival="219.00" arrivalLane="junctionEast_0" arrivalPos="492.80" arrivalSpeed="13.59" duration="87.00" routeLength="994.90" waitingTime="4.00" waitingCount="1" stopTime="0.00" timeLoss="14.76" rerouteNo="0" devices="tripinfo_westEastBottom0.11 ssm_westEastBottom0.11" vType="carCustom" speedFactor="1.02" vaporized=""/>
    <tripinfo id="westEastTop.22" depart="120.00" departLane="westJunction_1" departPos="5.10" departSpeed="7.19" departDelay="0.90" arrival="220.00" arrivalLane="junctionEast_1" arrivalPos="492.80" arrivalSpeed="13.77" duration="100.00" routeLength="994.90" waitingTime="0.00" waitingCount="0" stopTime="0.00" timeLoss="28.17" rerouteNo="0" devices="tripinfo_westEastTop.22 ssm_westEastTop.22" vType="carCustom" speedFactor="1.06" vaporized=""/>
    <tripinfo id="westEastTop.23" depart="122.00" departLane="westJunction_1" departPos="5.10" departSpeed="11.97" departDelay="0.89" arrival="225.00" arrivalLane="junctionEast_0" arrivalPos="492.80" arrivalSpeed="13.46" duration="103.00" routeLength="994.90" waitingTime="0.00" waitingCount="0" stopTime="0.00" timeLoss="31.03" rerouteNo="0" devices="tripinfo_westEastTop.23 ssm_westEastTop.23" vType="carCustom" speedFactor="0.96" vaporized=""/>
    <tripinfo id="southNorth.11" depart="107.00" departLane="southJunction_1" departPos="5.10" departSpeed="12.79" departDelay="0.41" arrival="226.00" arrivalLane="junctionNorth_0" arrivalPos="492.80" arrivalSpeed="13.78" duration="119.00" routeLength="995.01" waitingTime="29.00" waitingCount="2" stopTime="0.00" timeLoss="46.78" rerouteNo="0" devices="tripinfo_southNorth.11 ssm_southNorth.11" vType="carCustom" speedFactor="1.10" vaporized=""/>
    <tripinfo id="westEastBottom0.12" depart="154.00" departLane="westJunction_0" departPos="5.10" departSpeed="13.77" departDelay="0.65" arrival="231.00" arrivalLane="junctionEast_0" arrivalPos="492.80" arrivalSpeed="13.18" duration="77.00" routeLength="994.90" waitingTime="0.00" waitingCount="0" stopTime="0.00" timeLoss="5.04" rerouteNo="0" devices="tripinfo_westEastBottom0.12 ssm_westEastBottom0.12" vType="carCustom" speedFactor="0.95" vaporized=""/>
    <tripinfo id="westEastTop.24" depart="124.00" departLane="westJunction_1" departPos="5.10" departSpeed="7.67" departDelay="2.43" arrival="232.00" arrivalLane="junctionEast_1" arrivalPos="492.80" arrivalSpeed="13.04" duration="108.00" routeLength="994.90" waitingTime="2.00" waitingCount="1" stopTime="0.00" timeLoss="35.85" rerouteNo="0" devices="tripinfo_westEastTop.24 ssm_westEastTop.24" vType="carCustom" speedFactor="0.91" vaporized=""/>
    <tripinfo id="southNorth.12" depart="126.00" departLane="southJunction_1" departPos="5.10" departSpeed="12.72" departDelay="0.53" arrival="232.00" arrivalLane="junctionNorth_0" arrivalPos="492.80" arrivalSpeed="13.77" duration="106.00" routeLength="995.01" waitingTime="10.00" waitingCount="2" stopTime="0.00" timeLoss="33.94" rerouteNo="0" devices="tripinfo_southNorth.12 ssm_southNorth.12" vType="carCustom" speedFactor="0.93" vaporized=""/>
    <tripinfo id="westEastBottom0.13" depart="156.00" departLane="westJunction_0" departPos="5.10" departSpeed="13.42" departDelay="0.88" arrival="237.00" arrivalLane="junctionEast_0" arrivalPos="492.80" arrivalSpeed="12.85" duration="81.00" routeLength="994.90" waitingTime="0.00" waitingCount="0" stopTime="0.00" timeLoss="9.07" rerouteNo="0" devices="tripinfo_westEastBottom0.13 ssm_westEastBottom0.13" vType="carCustom" speedFactor="0.87" vaporized=""/>
    <tripinfo id="westEastTop.25" depart="128.00" departLane="westJunction_1" departPos="5.10" departSpeed="5.41" departDelay="0.29" arrival="239.00" arrivalLane="junctionEast_1" arrivalPos="492.80" arrivalSpeed="12.92" duration="111.00" routeLength="994.90" waitingTime="0.00" waitingCount="0" stopTime="0.00" timeLoss="38.77" rerouteNo="0" devices="tripinfo_westEastTop.25 ssm_westEastTop.25" vType="carCustom" speedFactor="1.09" vaporized=""/>