<?xml version="1.0" encoding="UTF-8"?>

<!-- generated on 2025-04-29 10:32:42 by Eclipse SUMO sumo Version 1.20.0
<configuration xmlns:xsi="http://www.w3.org/2001/XMLSchema-instance" xsi:noNamespaceSchemaLocation="http://sumo.dlr.de/xsd/sumoConfiguration.xsd">

    <input>
        <net-file value="nets/2lane_unprotected_right/2lane_unprotected_right.net.xml"/>
        <route-files value="nets/2lane_unprotected_right/2lane_unprotected_right.rou.xml"/>
    </input>

    <output>
        <tripinfo-output value="traces/transs50f1_s50_f0.5_random/0267_tripinfo.xml"/>
        <collision-output value="traces/transs50f1_s50_f0.5_random/0267_collisions.xml"/>
        <statistic-output value="traces/transs50f1_s50_f0.5_random/0267_statistics.xml"/>
    </output>

    <processing>
        <collision.action value="teleport"/>
        <collision.check-junctions value="true"/>
        <time-to-teleport value="-1"/>
        <waiting-time-memory value="1000"/>
        <max-depart-delay value="-1"/>
        <default.speeddev value="0.1"/>
    </processing>

    <report>
        <no-warnings value="true"/>
    </report>

    <ssm_device>
        <device.ssm.probability value="1.0"/>
        <device.ssm.measures value="BR"/>
        <device.ssm.file value="/Users/finn/Code/CausalKnowledgeTransfer-4-SafeRL/traces/transs50f1_s50_f0.5_random/0267_ssm.xml"/>
    </ssm_device>

    <traci_server>
        <remote-port value="49325"/>
    </traci_server>

    <random_number>
        <random value="true"/>
    </random_number>

</configuration>
-->

<tripinfos xmlns:xsi="http://www.w3.org/2001/XMLSchema-instance" xsi:noNamespaceSchemaLocation="http://sumo.dlr.de/xsd/tripinfo_file.xsd">
    <tripinfo id="southEast.6" depart="38.00" departLane="southJunction_0" departPos="5.10" departSpeed="5.97" departDelay="4.95" arrival="125.00" arrivalLane="junctionEast_0" arrivalPos="492.80" arrivalSpeed="5.59" duration="87.00" routeLength="989.53" waitingTime="7.00" waitingCount="2" stopTime="0.00" timeLoss="27.15" rerouteNo="0" devices="tripinfo_southEast.6 ssm_southEast.6" vType="carCustom" speedFactor="1.05" vaporized="teleport"/>
    <tripinfo id="westEastBottom0.0" depart="2.00" departLane="westJunction_0" departPos="5.10" departSpeed="8.33" departDelay="0.41" arrival="132.00" arrivalLane="junctionEast_0" arrivalPos="492.80" arrivalSpeed="7.42" duration="130.00" routeLength="994.90" waitingTime="0.00" waitingCount="0" stopTime="0.00" timeLoss="10.05" rerouteNo="0" devices="tripinfo_westEastBottom0.0 ssm_westEastBottom0.0" vType="carCustom" speedFactor="1.20" vaporized=""/>
    <tripinfo id="westEastBottom0.1" depart="5.00" departLane="westJunction_0" departPos="5.10" departSpeed="8.28" departDelay="1.73" arrival="137.00" arrivalLane="junctionEast_0" arrivalPos="492.80" arrivalSpeed="8.13" duration="132.00" routeLength="994.90" waitingTime="0.00" waitingCount="0" stopTime="0.00" timeLoss="11.84" rerouteNo="0" devices="tripinfo_westEastBottom0.1 ssm_westEastBottom0.1" vType="carCustom" speedFactor="1.00" vaporized=""/>
    <tripinfo id="southEast.9" depart="57.00" departLane="southJunction_0" departPos="5.10" departSpeed="7.54" departDelay="2.50" arrival="140.00" arrivalLane="junctionEast_0" arrivalPos="492.80" arrivalSpeed="6.39" duration="83.00" routeLength="989.53" waitingTime="4.00" waitingCount="2" stopTime="0.00" timeLoss="22.95" rerouteNo="0" devices="tripinfo_southEast.9 ssm_southEast.9" vType="carCustom" speedFactor="1.06" vaporized="teleport"/>
    <tripinfo id="southEast.0" depart="5.00" departLane="southJunction_0" departPos="5.10" departSpeed="8.33" departDelay="0.84" arrival="142.00" arrivalLane="junctionEast_0" arrivalPos="492.80" arrivalSpeed="7.10" duration="137.00" routeLength="989.53" waitingTime="2.00" waitingCount="1" stopTime="0.00" timeLoss="17.20" rerouteNo="0" devices="tripinfo_southEast.0 ssm_southEast.0" vType="carCustom" speedFactor="0.93" vaporized=""/>
    <tripinfo id="westEastBottom0.2" depart="11.00" departLane="westJunction_0" departPos="5.10" departSpeed="6.91" departDelay="0.41" arrival="142.00" arrivalLane="junctionEast_1" arrivalPos="492.80" arrivalSpeed="7.98" duration="131.00" routeLength="994.90" waitingTime="0.00" waitingCount="0" stopTime="0.00" timeLoss="11.26" rerouteNo="0" devices="tripinfo_westEastBottom0.2 ssm_westEastBottom0.2" vType="carCustom" speedFactor="1.01" vaporized=""/>
    <tripinfo id="southEast.1" depart="8.00" departLane="southJunction_0" departPos="5.10" departSpeed="8.28" departDelay="3.60" arrival="146.00" arrivalLane="junctionEast_0" arrivalPos="492.80" arrivalSpeed="8.12" duration="138.00" routeLength="989.53" waitingTime="0.00" waitingCount="0" stopTime="0.00" timeLoss="18.35" rerouteNo="0" devices="tripinfo_southEast.1 ssm_southEast.1" vType="carCustom" speedFactor="1.05" vaporized=""/>
    <tripinfo id="southNorth.0" depart="8.00" departLane="southJunction_1" departPos="5.10" departSpeed="8.33" departDelay="0.09" arrival="146.00" arrivalLane="junctionNorth_0" arrivalPos="492.80" arrivalSpeed="7.44" duration="138.00" routeLength="995.01" waitingTime="5.00" waitingCount="1" stopTime="0.00" timeLoss="18.31" rerouteNo="0" devices="tripinfo_southNorth.0 ssm_southNorth.0" vType="carCustom" speedFactor="0.90" vaporized=""/>
    <tripinfo id="southEast.2" depart="14.00" departLane="southJunction_0" departPos="5.10" departSpeed="6.91" departDelay="0.51" arrival="150.00" arrivalLane="junctionEast_0" arrivalPos="492.80" arrivalSpeed="7.26" duration="136.00" routeLength="989.53" waitingTime="0.00" waitingCount="0" stopTime="0.00" timeLoss="16.65" rerouteNo="0" devices="tripinfo_southEast.2 ssm_southEast.2" vType="carCustom" speedFactor="1.08" vaporized=""/>
    <tripinfo id="southNorth.1" depart="12.00" departLane="southJunction_1" departPos="5.10" departSpeed="7.22" departDelay="0.79" arrival="151.00" arrivalLane="junctionNorth_0" arrivalPos="492.80" arrivalSpeed="7.97" duration="139.00" routeLength="995.01" waitingTime="0.00" waitingCount="0" stopTime="0.00" timeLoss="19.22" rerouteNo="0" devices="tripinfo_southNorth.1 ssm_southNorth.1" vType="carCustom" speedFactor="0.92" vaporized=""/>
    <tripinfo id="westEastTop.0" depart="17.00" departLane="westJunction_1" departPos="5.10" departSpeed="8.33" departDelay="0.19" arrival="151.00" arrivalLane="junctionEast_1" arrivalPos="492.80" arrivalSpeed="7.90" duration="134.00" routeLength="994.90" waitingTime="1.00" waitingCount="1" stopTime="0.00" timeLoss="14.36" rerouteNo="0" devices="tripinfo_westEastTop.0 ssm_westEastTop.0" vType="carCustom" speedFactor="1.05" vaporized=""/>
    <tripinfo id="westEastBottom0.3" depart="13.00" departLane="westJunction_0" departPos="5.10" departSpeed="8.03" departDelay="1.01" arrival="154.00" arrivalLane="junctionEast_0" arrivalPos="492.80" arrivalSpeed="8.27" duration="141.00" routeLength="994.90" waitingTime="3.00" waitingCount="1" stopTime="0.00" timeLoss="21.10" rerouteNo="0" devices="tripinfo_westEastBottom0.3 ssm_westEastBottom0.3" vType="carCustom" speedFactor="0.92" vaporized=""/>
    <tripinfo id="westEastTop.1" depart="20.00" departLane="westJunction_1" departPos="5.10" departSpeed="8.28" departDelay="0.45" arrival="156.00" arrivalLane="junctionEast_1" arrivalPos="492.80" arrivalSpeed="7.92" duration="136.00" routeLength="994.90" waitingTime="0.00" waitingCount="0" stopTime="0.00" timeLoss="15.76" rerouteNo="0" devices="tripinfo_westEastTop.1 ssm_westEastTop.1" vType="carCustom" speedFactor="0.95" vaporized=""/>
    <tripinfo id="southEast.3" depart="21.00" departLane="southJunction_0" departPos="5.10" departSpeed="7.76" departDelay="0.01" arrival="160.00" arrivalLane="junctionEast_0" arrivalPos="492.80" arrivalSpeed="7.58" duration="139.00" routeLength="989.53" waitingTime="6.00" waitingCount="1" stopTime="0.00" timeLoss="19.27" rerouteNo="0" devices="tripinfo_southEast.3 ssm_southEast.3" vType="carCustom" speedFactor="1.08" vaporized=""/>
    <tripinfo id="westEastTop.2" depart="34.00" departLane="westJunction_1" departPos="5.10" departSpeed="7.17" departDelay="0.05" arrival="165.00" arrivalLane="junctionEast_1" arrivalPos="492.80" arrivalSpeed="7.13" duration="131.00" routeLength="994.90" waitingTime="0.00" waitingCount="0" stopTime="0.00" timeLoss="10.95" rerouteNo="0" devices="tripinfo_westEastTop.2 ssm_westEastTop.2" vType="carCustom" speedFactor="1.18" vaporized=""/>
    <tripinfo id="westEastBottom0.4" depart="35.00" departLane="westJunction_0" departPos="5.10" departSpeed="7.07" departDelay="0.80" arrival="165.00" arrivalLane="junctionEast_0" arrivalPos="492.80" arrivalSpeed="7.66" duration="130.00" routeLength="994.90" waitingTime="0.00" waitingCount="0" stopTime="0.00" timeLoss="10.19" rerouteNo="0" devices="tripinfo_westEastBottom0.4 ssm_westEastBottom0.4" vType="carCustom" speedFactor="0.96" vaporized=""/>
    <tripinfo id="southEast.4" depart="33.00" departLane="southJunction_0" departPos="5.10" departSpeed="7.53" departDelay="0.98" arrival="169.00" arrivalLane="junctionEast_0" arrivalPos="492.80" arrivalSpeed="7.54" duration="136.00" routeLength="989.53" waitingTime="3.00" waitingCount="1" stopTime="0.00" timeLoss="16.88" rerouteNo="0" devices="tripinfo_southEast.4 ssm_southEast.4" vType="carCustom" speedFactor="1.04" vaporized=""/>
    <tripinfo id="southEast.14" depart="90.00" departLane="southJunction_0" departPos="5.10" departSpeed="7.82" departDelay="0.99" arrival="169.00" arrivalLane="junctionEast_0" arrivalPos="492.80" arrivalSpeed="5.46" duration="79.00" routeLength="989.53" waitingTime="3.00" waitingCount="1" stopTime="0.00" timeLoss="18.82" rerouteNo="0" devices="tripinfo_southEast.14 ssm_southEast.14" vType="carCustom" speedFactor="0.87" vaporized="teleport"/>
    <tripinfo id="southNorth.2" depart="26.00" departLane="southJunction_1" departPos="5.10" departSpeed="7.24" departDelay="0.10" arrival="171.00" arrivalLane="junctionNorth_0" arrivalPos="492.80" arrivalSpeed="7.13" duration="145.00" routeLength="995.01" waitingTime="10.00" waitingCount="1" stopTime="0.00" timeLoss="25.23" rerouteNo="0" devices="tripinfo_southNorth.2 ssm_southNorth.2" vType="carCustom" speedFactor="1.07" vaporized=""/>
    <tripinfo id="westEastBottom0.13" depart="103.00" departLane="westJunction_0" departPos="5.10" departSpeed="7.41" departDelay="0.95" arrival="173.00" arrivalLane="junctionEast_0" arrivalPos="492.80" arrivalSpeed="5.55" duration="70.00" routeLength="994.90" waitingTime="0.00" waitingCount="0" stopTime="0.00" timeLoss="9.40" rerouteNo="0" devices="tripinfo_westEastBottom0.13 ssm_westEastBottom0.13" vType="carCustom" speedFactor="0.93" vaporized="teleport"/>
    <tripinfo id="westEastTop.3" depart="36.00" departLane="westJunction_1" departPos="5.10" departSpeed="7.41" departDelay="0.60" arrival="175.00" arrivalLane="junctionEast_1" arrivalPos="492.80" arrivalSpeed="7.49" duration="139.00" routeLength="994.90" waitingTime="4.00" waitingCount="1" stopTime="0.00" timeLoss="19.33" rerouteNo="0" devices="tripinfo_westEastTop.3 ssm_westEastTop.3" vType="carCustom" speedFactor="1.08" vaporized=""/>
    <tripinfo id="westEastBottom0.5" depart="41.00" departLane="westJunction_0" departPos="5.10" departSpeed="7.99" departDelay="0.76" arrival="176.00" arrivalLane="junctionEast_0" arrivalPos="492.80" arrivalSpeed="7.80" duration="135.00" routeLength="994.90" waitingTime="1.00" waitingCount="1" stopTime="0.00" timeLoss="14.65" rerouteNo="0" devices="tripinfo_westEastBottom0.5 ssm_westEastBottom0.5" vType="carCustom" speedFactor="1.22" vaporized=""/>
    <tripinfo id="southEast.5" depart="35.00" departLane="southJunction_0" departPos="5.10" departSpeed="8.07" departDelay="2.84" arrival="180.00" arrivalLane="junctionEast_0" arrivalPos="492.80" arrivalSpeed="7.22" duration="145.00" routeLength="989.53" waitingTime="5.00" waitingCount="1" stopTime="0.00" timeLoss="25.56" rerouteNo="0" devices="tripinfo_southEast.5 ssm_southEast.5" vType="carCustom" speedFactor="1.11" vaporized=""/>
    <tripinfo id="southNorth.3" depart="40.00" departLane="southJunction_1" departPos="5.10" departSpeed="7.35" departDelay="0.57" arrival="180.00" arrivalLane="junctionNorth_0" arrivalPos="492.80" arrivalSpeed="7.44" duration="140.00" routeLength="995.01" waitingTime="4.00" waitingCount="1" stopTime="0.00" timeLoss="19.84" rerouteNo="0" devices="tripinfo_southNorth.3 ssm_southNorth.3" vType="carCustom" speedFactor="1.02" vaporized=""/>
    <tripinfo id="westEastTop.4" depart="39.00" departLane="westJunction_1" departPos="5.10" departSpeed="6.18" departDelay="1.22" arrival="185.00" arrivalLane="junctionEast_0" arrivalPos="492.80" arrivalSpeed="7.88" duration="146.00" routeLength="994.90" waitingTime="5.00" waitingCount="1" stopTime="0.00" timeLoss="26.50" rerouteNo="0" devices="tripinfo_westEastTop.4 ssm_westEastTop.4" vType="carCustom" speedFactor="1.07" vaporized=""/>
    <tripinfo id="westEastTop.5" depart="42.00" departLane="westJunction_1" departPos="5.10" departSpeed="5.55" departDelay="4.07" arrival="190.00" arrivalLane="junctionEast_0" arrivalPos="492.80" arrivalSpeed="7.94" duration="148.00" routeLength="994.90" waitingTime="2.00" waitingCount="1" stopTime="0.00" timeLoss="27.90" rerouteNo="0" devices="tripinfo_westEastTop.5 ssm_westEastTop.5" vType="carCustom" speedFactor="0.86" vaporized=""/>
    <tripinfo id="westEastBottom0.15" depart="121.00" departLane="westJunction_0" departPos="5.10" departSpeed="7.89" departDelay="1.48" arrival="191.00" arrivalLane="junctionEast_0" arrivalPos="492.80" arrivalSpeed="1.83" duration="70.00" routeLength="994.90" waitingTime="0.00" waitingCount="0" stopTime="0.00" timeLoss="9.71" rerouteNo="0" devices="tripinfo_westEastBottom0.15 ssm_westEastBottom0.15" vType="carCustom" speedFactor="1.10" vaporized="teleport"/>
    <tripinfo id="westEastTop.6" depart="45.00" departLane="westJunction_1" departPos="5.10" departSpeed="4.04" departDelay="3.84" arrival="192.00" arrivalLane="junctionEast_0" arrivalPos="492.80" arrivalSpeed="7.64" duration="147.00" routeLength="994.90" waitingTime="1.00" waitingCount="1" stopTime="0.00" timeLoss="27.02" rerouteNo="0" devices="tripinfo_westEastTop.6 ssm_westEastTop.6" vType="carCustom" speedFactor="0.99" vaporized=""/>
    <tripinfo id="southNorth.4" depart="55.00" departLane="southJunction_1" departPos="5.10" departSpeed="7.26" departDelay="0.30" arrival="195.00" arrivalLane="junctionNorth_0" arrivalPos="492.80" arrivalSpeed="8.24" duration="140.00" routeLength="995.01" waitingTime="7.00" waitingCount="1" stopTime="0.00" timeLoss="19.90" rerouteNo="0" devices="tripinfo_southNorth.4 ssm_southNorth.4" vType="carCustom" speedFactor="1.15" vaporized=""/>
    <tripinfo id="westEastBottom0.6" depart="59.00" departLane="westJunction_0" departPos="5.10" departSpeed="8.18" departDelay="0.84" arrival="195.00" arrivalLane="junctionEast_0" arrivalPos="492.80" arrivalSpeed="7.71" duration="136.00" routeLength="994.90" waitingTime="0.00" waitingCount="0" stopTime="0.00" timeLoss="15.69" rerouteNo="0" devices="tripinfo_westEastBottom0.6 ssm_westEastBottom0.6" vType="carCustom" speedFactor="1.10" vaporized=""/>
    <tripinfo id="southEast.7" depart="48.00" departLane="southJunction_0" departPos="5.10" departSpeed="6.38" departDelay="0.26" arrival="196.00" arrivalLane="junctionEast_1" arrivalPos="492.80" arrivalSpeed="7.81" duration="148.00" routeLength="989.53" waitingTime="4.00" waitingCount="1" stopTime="0.00" timeLoss="28.64" rerouteNo="0" devices="tripinfo_southEast.7 ssm_southEast.7" vType="carCustom" speedFactor="1.00" vaporized=""/>
    <tripinfo id="southEast.8" depart="54.00" departLane="southJunction_0" departPos="5.10" departSpeed="8.33" departDelay="0.95" arrival="199.00" arrivalLane="junctionEast_0" arrivalPos="492.80" arrivalSpeed="7.18" duration="145.00" routeLength="989.53" waitingTime="3.00" waitingCount="1" stopTime="0.00" timeLoss="25.17" rerouteNo="0" devices="tripinfo_southEast.8 ssm_southEast.8" vType="carCustom" speedFactor="1.06" vaporized=""/>
    <tripinfo id="southNorth.5" depart="59.00" departLane="southJunction_1" departPos="5.10" departSpeed="8.12" departDelay="0.87" arrival="199.00" arrivalLane="junctionNorth_0" arrivalPos="492.80" arrivalSpeed="7.80" duration="140.00" routeLength="995.01" waitingTime="2.00" waitingCount="1" stopTime="0.00" timeLoss="20.43" rerouteNo="0" devices="tripinfo_southNorth.5 ssm_southNorth.5" vType="carCustom" speedFactor="0.90" vaporized=""/>
    <tripinfo id="westEastTop.7" depart="49.00" departLane="westJunction_1" departPos="5.10" departSpeed="3.81" departDelay="7.44" arrival="200.00" arrivalLane="junctionEast_1" arrivalPos="492.80" arrivalSpeed="7.62" duration="151.00" routeLength="994.90" waitingTime="4.00" waitingCount="1" stopTime="0.00" timeLoss="31.48" rerouteNo="0" devices="tripinfo_westEastTop.7 ssm_westEastTop.7" vType="carCustom" speedFactor="0.96" vaporized=""/>
    <tripinfo id="westEastBottom0.7" depart="64.00" departLane="westJunction_0" departPos="5.10" departSpeed="7.60" departDelay="0.46" arrival="203.00" arrivalLane="junctionEast_0" arrivalPos="492.80" arrivalSpeed="8.08" duration="139.00" routeLength="994.90" waitingTime="4.00" waitingCount="1" stopTime="0.00" timeLoss="18.71" rerouteNo="0" devices="tripinfo_westEastBottom0.7 ssm_westEastBottom0.7" vType="carCustom" speedFactor="0.99" vaporized=""/>
    <tripinfo id="westEastTop.8" depart="53.00" departLane="westJunction_1" departPos="5.10" departSpeed="3.99" departDelay="7.83" arrival="205.00" arrivalLane="junctionEast_1" arrivalPos="492.80" arrivalSpeed="7.45" duration="152.00" routeLength="994.90" waitingTime="0.00" waitingCount="0" stopTime="0.00" timeLoss="32.09" rerouteNo="0" devices="tripinfo_westEastTop.8 ssm_westEastTop.8" vType="carCustom" speedFactor="0.87" vaporized=""/>
    <tripinfo id="westEastBottom0.8" depart="72.00" departLane="westJunction_0" departPos="5.10" departSpeed="7.43" departDelay="0.54" arrival="207.00" arrivalLane="junctionEast_0" arrivalPos="492.80" arrivalSpeed="8.21" duration="135.00" routeLength="994.90" waitingTime="0.00" waitingCount="0" stopTime="0.00" timeLoss="14.77" rerouteNo="0" devices="tripinfo_westEastBottom0.8 ssm_westEastBottom0.8" vType="carCustom" speedFactor="0.99" vaporized=""/>
    <tripinfo id="westEastTop.9" depart="57.00" departLane="westJunction_1" departPos="5.10" departSpeed="4.87" departDelay="11.26" arrival="209.00" arrivalLane="junctionEast_1" arrivalPos="492.80" arrivalSpeed="7.45" duration="152.00" routeLength="994.90" waitingTime="0.00" waitingCount="0" stopTime="0.00" timeLoss="32.33" rerouteNo="0" devices="tripinfo_westEastTop.9 ssm_westEastTop.9" vType="carCustom" speedFactor="0.92" vaporized=""/>
    <tripinfo id="southEast.10" depart="63.00" departLane="southJunction_0" departPos="5.10" departSpeed="7.17" departDelay="0.20" arrival="211.00" arrivalLane="junctionEast_0" arrivalPos="492.80" arrivalSpeed="7.51" duration="148.00" routeLength="989.53" waitingTime="1.00" waitingCount="1" stopTime="0.00" timeLoss="28.40" rerouteNo="0" devices="tripinfo_southEast.10 ssm_southEast.10" vType="carCustom" speedFactor="1.08" vaporized=""/>
    <tripinfo id="westEastTop.10" depart="60.00" departLane="westJunction_1" departPos="5.10" departSpeed="4.95" departDelay="12.28" arrival="213.00" arrivalLane="junctionEast_1" arrivalPos="492.80" arrivalSpeed="7.41" duration="153.00" routeLength="994.90" waitingTime="0.00" waitingCount="0" stopTime="0.00" timeLoss="33.50" rerouteNo="0" devices="tripinfo_westEastTop.10 ssm_westEastTop.10" vType="carCustom" speedFactor="1.09" vaporized=""/>
    <tripinfo id="southEast.11" depart="65.00" departLane="southJunction_0" departPos="5.10" departSpeed="7.92" departDelay="0.44" arrival="215.00" arrivalLane="junctionEast_0" arrivalPos="492.80" arrivalSpeed="7.71" duration="150.00" routeLength="989.53" waitingTime="0.00" waitingCount="0" stopTime="0.00" timeLoss="30.58" rerouteNo="0" devices="tripinfo_southEast.11 ssm_southEast.11" vType="carCustom" speedFactor="1.12" vaporized=""/>
    <tripinfo id="westEastTop.11" depart="64.00" departLane="westJunction_1" departPos="5.10" departSpeed="3.74" departDelay="8.73" arrival="218.00" arrivalLane="junctionEast_0" arrivalPos="492.80" arrivalSpeed="7.70" duration="154.00" routeLength="994.90" waitingTime="0.00" waitingCount="0" stopTime="0.00" timeLoss="34.14" rerouteNo="0" devices="tripinfo_westEastTop.11 ssm_westEastTop.11" vType="carCustom" speedFactor="1.07" vaporized=""/>
    <tripinfo id="southEast.12" depart="77.00" departLane="southJunction_0" departPos="5.10" departSpeed="7.21" departDelay="0.38" arrival="221.00" arrivalLane="junctionEast_0" arrivalPos="492.80" arrivalSpeed="7.21" duration="144.00" routeLength="989.53" waitingTime="0.00" waitingCount="0" stopTime="0.00" timeLoss="24.65" rerouteNo="0" devices="tripinfo_southEast.12 ssm_southEast.12" vType="carCustom" speedFactor="1.01" vaporized=""/>
    <tripinfo id="westEastTop.12" depart="68.00" departLane="westJunction_1" departPos="5.10" departSpeed="4.63" departDelay="3.34" arrival="222.00" arrivalLane="junctionEast_1" arrivalPos="492.80" arrivalSpeed="7.59" duration="154.00" routeLength="994.90" waitingTime="0.00" waitingCount="0" stopTime="0.00" timeLoss="33.89" rerouteNo="0" devices="tripinfo_westEastTop.12 ssm_westEastTop.12" vType="carCustom" speedFactor="0.85" vaporized=""/>
    <tripinfo id="southEast.24" depart="137.00" departLane="southJunction_0" departPos="5.10" departSpeed="5.62" departDelay="10.23" arrival="222.00" arrivalLane="junctionEast_0" arrivalPos="492.80" arrivalSpeed="4.89" duration="85.00" routeLength="989.53" waitingTime="0.00" waitingCount="0" stopTime="0.00" timeLoss="25.13" rerouteNo="0" devices="tripinfo_southEast.24 ssm_southEast.24" vType="carCustom" speedFactor="0.97" vaporized="teleport"/>
    <tripinfo id="westEastBottom0.9" depart="85.00" departLane="westJunction_0" departPos="5.10" departSpeed="8.23" departDelay="0.81" arrival="225.00" arrivalLane="junctionEast_0" arrivalPos="492.80" arrivalSpeed="7.79" duration="140.00" routeLength="994.90" waitingTime="0.00" waitingCount="0" stopTime="0.00" timeLoss="19.87" rerouteNo="0" devices="tripinfo_westEastBottom0.9 ssm_westEastBottom0.9" vType="carCustom" speedFactor="1.05" vaporized=""/>
    <tripinfo id="westEastTop.13" depart="72.00" departLane="westJunction_1" departPos="5.10" departSpeed="3.83" departDelay="6.45" arrival="226.00" arrivalLane="junctionEast_1" arrivalPos="492.80" arrivalSpeed="7.99" duration="154.00" routeLength="994.90" waitingTime="0.00" waitingCount="0" stopTime="0.00" timeLoss="33.99" rerouteNo="0" devices="tripinfo_westEastTop.13 ssm_westEastTop.13" vType="carCustom" speedFactor="1.04" vaporized=""/>
    <tripinfo id="westEastBottom0.19" depart="153.00" departLane="westJunction_0" departPos="5.10" departSpeed="8.17" departDelay="3.00" arrival="226.00" arrivalLane="junctionEast_0" arrivalPos="492.80" arrivalSpeed="5.63" duration="73.00" routeLength="994.90" waitingTime="0.00" waitingCount="0" stopTime="0.00" timeLoss="12.39" rerouteNo="0" devices="tripinfo_westEastBottom0.19 ssm_westEastBottom0.19" vType="carCustom" speedFactor="1.01" vaporized="teleport"/>
    <tripinfo id="westEastBottom0.10" depart="88.00" departLane="westJunction_0" departPos="5.10" departSpeed="7.81" departDelay="2.90" arrival="229.00" arrivalLane="junctionEast_0" arrivalPos="492.80" arrivalSpeed="7.89" duration="141.00" routeLength="994.90" waitingTime="0.00" waitingCount="0" stopTime="0.00" timeLoss="20.82" rerouteNo="0" devices="tripinfo_westEastBottom0.10 ssm_westEastBottom0.10" vType="carCustom" speedFactor="1.01" vaporized=""/>
    <tripinfo id="westEastTop.14" depart="76.00" departLane="westJunction_1" departPos="5.10" departSpeed="4.73" departDelay="4.25" arrival="230.00" arrivalLane="junctionEast_1" arrivalPos="492.80" arrivalSpeed="7.89" duration="154.00" routeLength="994.90" waitingTime="0.00" waitingCount="0" stopTime="0.00" timeLoss="34.15" rerouteNo="0" devices="tripinfo_westEastTop.14 ssm_westEastTop.14" vType="carCustom" speedFactor="1.19" vaporized=""/>
    <tripinfo id="southEast.13" depart="84.00" departLane="southJunction_0" departPos="5.10" departSpeed="7.78" departDelay="0.45" arrival="233.00" arrivalLane="junctionEast_0" arrivalPos="492.80" arrivalSpeed="8.32" duration="149.00" routeLength="989.53" waitingTime="3.00" waitingCount="1" stopTime="0.00" timeLoss="29.01" rerouteNo="0" devices="tripinfo_southEast.13 ssm_southEast.13" vType="carCustom" speedFactor="0.96" vaporized=""/>
    <tripinfo id="westEastTop.15" depart="80.00" departLane="westJunction_1" departPos="5.10" departSpeed="5.12" departDelay="7.48" arrival="234.00" arrivalLane="junctionEast_1" arrivalPos="492.80" arrivalSpeed="8.02" duration="154.00" routeLength="994.90" waitingTime="0.00" waitingCount="0" stopTime="0.00" timeLoss="34.08" rerouteNo="0" devices="tripinfo_westEastTop.15 ssm_westEastTop.15" vType="carCustom" speedFactor="0.95" vaporized=""/>
    <tripinfo id="westEastBottom0.11" depart="91.00" departLane="westJunction_0" departPos="5.10" departSpeed="6.65" departDelay="0.22" arrival="237.00" arrivalLane="junctionEast_0" arrivalPos="492.80" arrivalSpeed="8.01" duration="146.00" routeLength="994.90" waitingTime="1.00" waitingCount="1" stopTime="0.00" timeLoss="25.74" rerouteNo="0" devices="tripinfo_westEastBottom0.11 ssm_westEastBottom0.11" vType="carCustom" speedFactor="1.05" vaporized=""/>
    <tripinfo id="westEastTop.16" depart="83.00" departLane="westJunction_1" departPos="5.10" departSpeed="4.30" departDelay="2.26" arrival="238.00" arrivalLane="junctionEast_1" arrivalPos="492.80" arrivalSpeed="7.68" duration="155.00" routeLength="994.90" waitingTime="0.00" waitingCount="0" stopTime="0.00" timeLoss="35.47" rerouteNo="0" devices="tripinfo_westEastTop.16 ssm_westEastTop.16" vType="carCustom" speedFactor="0.96" vaporized=""/>
    <tripinfo id="westEastBottom0.12" depart="100.00" departLane="westJunction_0" departPos="5.10" departSpeed="6.90" departDelay="0.74" arrival="241.00" arrivalLane="junctionEast_0" arrivalPos="492.80" arrivalSpeed="7.41" duration="141.00" routeLength="994.90" waitingTime="0.00" waitingCount="0" stopTime="0.00" timeLoss="20.80" rerouteNo="0" devices="tripinfo_westEastBottom0.12 ssm_westEastBottom0.12" vType="carCustom" speedFactor="1.03" vaporized=""/>
    <tripinfo id="southNorth.6" depart="63.00" departLane="southJunction_1" departPos="5.10" departSpeed="7.83" departDelay="0.26" arrival="242.00" arrivalLane="junctionNorth_0" arrivalPos="492.80" arrivalSpeed="7.88" duration="179.00" routeLength="995.01" waitingTime="38.00" waitingCount="1" stopTime="0.00" timeLoss="58.92" rerouteNo="0" devices="tripinfo_southNorth.6 ssm_southNorth.6" vType="carCustom" speedFactor="0.96" vaporized=""/>
    <tripinfo id="westEastTop.17" depart="87.00" departLane="westJunction_1" departPos="5.10" departSpeed="4.22" departDelay="5.45" arrival="243.00" arrivalLane="junctionEast_1" arrivalPos="492.80" arrivalSpeed="7.43" duration="156.00" routeLength="994.90" waitingTime="0.00" waitingCount="0" stopTime="0.00" timeLoss="35.96" rerouteNo="0" devices="tripinfo_westEastTop.17 ssm_westEastTop.17" vType="carCustom" speedFactor="1.19" vaporized=""/>
    <tripinfo id="southEast.15" depart="97.00" departLane="southJunction_0" departPos="5.10" departSpeed="7.98" departDelay="0.10" arrival="245.00" arrivalLane="junctionEast_0" arrivalPos="492.80" arrivalSpeed="7.84" duration="148.00" routeLength="989.53" waitingTime="3.00" waitingCount="1" stopTime="0.00" timeLoss="28.07" rerouteNo="0" devices="tripinfo_southEast.15 ssm_southEast.15" vType="carCustom" speedFactor="0.92" vaporized=""/>
    <tripinfo id="southEast.16" depart="106.00" departLane="southJunction_0" departPos="5.10" departSpeed="7.92" departDelay="0.65" arrival="247.00" arrivalLane="junctionEast_1" arrivalPos="492.80" arrivalSpeed="7.73" duration="141.00" routeLength="989.53" waitingTime="0.00" waitingCount="0" stopTime="0.00" timeLoss="21.33" rerouteNo="0" devices="tripinfo_southEast.16 ssm_southEast.16" vType="carCustom" speedFactor="1.03" vaporized=""/>
    <tripinfo id="westEastBottom0.14" depart="119.00" departLane="westJunction_0" departPos="5.10" departSpeed="7.59" departDelay="0.93" arrival="249.00" arrivalLane="junctionEast_0" arrivalPos="492.80" arrivalSpeed="7.23" duration="130.00" routeLength="994.90" waitingTime="0.00" waitingCount="0" stopTime="0.00" timeLoss="10.17" rerouteNo="0" devices="tripinfo_westEastBottom0.14 ssm_westEastBottom0.14" vType="carCustom" speedFactor="1.07" vaporized=""/>
    <tripinfo id="westEastTop.18" depart="94.00" departLane="westJunction_1" departPos="5.10" departSpeed="5.01" departDelay="0.27" arrival="253.00" arrivalLane="junctionEast_0" arrivalPos="492.80" arrivalSpeed="7.32" duration="159.00" routeLength="994.90" waitingTime="3.00" waitingCount="1" stopTime="0.00" timeLoss="39.46" rerouteNo="0" devices="tripinfo_westEastTop.18 ssm_westEastTop.18" vType="carCustom" speedFactor="0.94" vaporized=""/>
    <tripinfo id="southEast.17" depart="111.00" departLane="southJunction_0" departPos="5.10" departSpeed="7.38" departDelay="0.66" arrival="253.00" arrivalLane="junctionEast_1" arrivalPos="492.80" arrivalSpeed="7.28" duration="142.00" routeLength="989.53" waitingTime="4.00" waitingCount="1" stopTime="0.00" timeLoss="22.20" rerouteNo="0" devices="tripinfo_southEast.17 ssm_southEast.17" vType="carCustom" speedFactor="0.87" vaporized=""/>
    <tripinfo id="westEastBottom0.24" depart="174.00" departLane="westJunction_0" departPos="5.10" departSpeed="6.49" departDelay="4.12" arrival="253.00" arrivalLane="junctionEast_0" arrivalPos="492.80" arrivalSpeed="3.04" duration="79.00" routeLength="994.90" waitingTime="0.00" waitingCount="0" stopTime="0.00" timeLoss="18.45" rerouteNo="0" devices="tripinfo_westEastBottom0.24 ssm_westEastBottom0.24" vType="carCustom" speedFactor="1.00" vaporized="teleport"/>