<?xml version="1.0" encoding="UTF-8"?>

<!-- generated on 2025-04-29 10:34:53 by Eclipse SUMO sumo Version 1.20.0
<configuration xmlns:xsi="http://www.w3.org/2001/XMLSchema-instance" xsi:noNamespaceSchemaLocation="http://sumo.dlr.de/xsd/sumoConfiguration.xsd">

    <input>
        <net-file value="nets/2lane_unprotected_right/2lane_unprotected_right.net.xml"/>
        <route-files value="nets/2lane_unprotected_right/2lane_unprotected_right.rou.xml"/>
    </input>

    <output>
        <tripinfo-output value="traces/transs50f1_s50_f0.5_random/0268_tripinfo.xml"/>
        <collision-output value="traces/transs50f1_s50_f0.5_random/0268_collisions.xml"/>
        <statistic-output value="traces/transs50f1_s50_f0.5_random/0268_statistics.xml"/>
    </output>

    <processing>
        <collision.action value="teleport"/>
        <collision.check-junctions value="true"/>
        <time-to-teleport value="-1"/>
        <waiting-time-memory value="1000"/>
        <max-depart-delay value="-1"/>
        <default.speeddev value="0.1"/>
    </processing>

    <report>
        <no-warnings value="true"/>
    </report>

    <ssm_device>
        <device.ssm.probability value="1.0"/>
        <device.ssm.measures value="BR"/>
        <device.ssm.file value="/Users/finn/Code/CausalKnowledgeTransfer-4-SafeRL/traces/transs50f1_s50_f0.5_random/0268_ssm.xml"/>
    </ssm_device>

    <traci_server>
        <remote-port value="49337"/>
    </traci_server>

    <random_number>
        <random value="true"/>
    </random_number>

</configuration>
-->

<tripinfos xmlns:xsi="http://www.w3.org/2001/XMLSchema-instance" xsi:noNamespaceSchemaLocation="http://sumo.dlr.de/xsd/tripinfo_file.xsd">
    <tripinfo id="westEastTop.0" depart="5.00" departLane="westJunction_1" departPos="5.10" departSpeed="22.22" departDelay="0.73" arrival="52.00" arrivalLane="junctionEast_1" arrivalPos="492.80" arrivalSpeed="21.88" duration="47.00" routeLength="994.90" waitingTime="0.00" waitingCount="0" stopTime="0.00" timeLoss="1.25" rerouteNo="0" devices="tripinfo_westEastTop.0 ssm_westEastTop.0" vType="carCustom" speedFactor="0.99" vaporized=""/>
    <tripinfo id="southEast.0" depart="1.00" departLane="southJunction_0" departPos="5.10" departSpeed="22.22" departDelay="0.45" arrival="56.00" arrivalLane="junctionEast_0" arrivalPos="492.80" arrivalSpeed="21.33" duration="55.00" routeLength="989.53" waitingTime="0.00" waitingCount="0" stopTime="0.00" timeLoss="9.16" rerouteNo="0" devices="tripinfo_southEast.0 ssm_southEast.0" vType="carCustom" speedFactor="1.06" vaporized=""/>
    <tripinfo id="southNorth.0" depart="9.00" departLane="southJunction_1" departPos="5.10" departSpeed="22.22" departDelay="0.90" arrival="63.00" arrivalLane="junctionNorth_0" arrivalPos="492.80" arrivalSpeed="22.21" duration="54.00" routeLength="995.01" waitingTime="0.00" waitingCount="0" stopTime="0.00" timeLoss="8.45" rerouteNo="0" devices="tripinfo_southNorth.0 ssm_southNorth.0" vType="carCustom" speedFactor="0.86" vaporized=""/>
    <tripinfo id="southEast.1" depart="7.00" departLane="southJunction_0" departPos="5.10" departSpeed="21.50" departDelay="0.50" arrival="68.00" arrivalLane="junctionEast_0" arrivalPos="492.80" arrivalSpeed="21.36" duration="61.00" routeLength="989.53" waitingTime="0.00" waitingCount="0" stopTime="0.00" timeLoss="14.98" rerouteNo="0" devices="tripinfo_southEast.1 ssm_southEast.1" vType="carCustom" speedFactor="0.83" vaporized=""/>
    <tripinfo id="westEastTop.1" depart="10.00" departLane="westJunction_1" departPos="5.10" departSpeed="21.87" departDelay="0.29" arrival="69.00" arrivalLane="junctionEast_1" arrivalPos="492.80" arrivalSpeed="22.02" duration="59.00" routeLength="994.90" waitingTime="5.00" waitingCount="1" stopTime="0.00" timeLoss="13.74" rerouteNo="0" devices="tripinfo_westEastTop.1 ssm_westEastTop.1" vType="carCustom" speedFactor="0.82" vaporized=""/>
    <tripinfo id="westEastTop.2" depart="13.00" departLane="westJunction_1" departPos="5.10" departSpeed="17.34" departDelay="0.11" arrival="76.00" arrivalLane="junctionEast_0" arrivalPos="492.80" arrivalSpeed="21.52" duration="63.00" routeLength="994.90" waitingTime="0.00" waitingCount="0" stopTime="0.00" timeLoss="18.19" rerouteNo="0" devices="tripinfo_westEastTop.2 ssm_westEastTop.2" vType="carCustom" speedFactor="1.01" vaporized=""/>
    <tripinfo id="southEast.2" depart="17.00" departLane="southJunction_0" departPos="5.10" departSpeed="18.76" departDelay="0.30" arrival="82.00" arrivalLane="junctionEast_1" arrivalPos="492.80" arrivalSpeed="22.01" duration="65.00" routeLength="989.53" waitingTime="0.00" waitingCount="0" stopTime="0.00" timeLoss="18.58" rerouteNo="0" devices="tripinfo_southEast.2 ssm_southEast.2" vType="carCustom" speedFactor="0.94" vaporized=""/>
    <tripinfo id="southNorth.1" depart="21.00" departLane="southJunction_1" departPos="5.10" departSpeed="22.19" departDelay="0.37" arrival="84.00" arrivalLane="junctionNorth_0" arrivalPos="492.80" arrivalSpeed="21.49" duration="63.00" routeLength="995.01" waitingTime="5.00" waitingCount="1" stopTime="0.00" timeLoss="17.86" rerouteNo="0" devices="tripinfo_southNorth.1 ssm_southNorth.1" vType="carCustom" speedFactor="1.07" vaporized=""/>
    <tripinfo id="westEastTop.3" depart="16.00" departLane="westJunction_1" departPos="5.10" departSpeed="12.43" departDelay="0.68" arrival="87.00" arrivalLane="junctionEast_0" arrivalPos="492.80" arrivalSpeed="21.73" duration="71.00" routeLength="994.90" waitingTime="0.00" waitingCount="0" stopTime="0.00" timeLoss="25.82" rerouteNo="0" devices="tripinfo_westEastTop.3 ssm_westEastTop.3" vType="carCustom" speedFactor="0.91" vaporized=""/>
    <tripinfo id="westEastBottom0.0" depart="35.00" departLane="westJunction_0" departPos="5.10" departSpeed="22.22" departDelay="0.57" arrival="93.00" arrivalLane="junctionEast_0" arrivalPos="492.80" arrivalSpeed="21.87" duration="58.00" routeLength="994.90" waitingTime="0.00" waitingCount="0" stopTime="0.00" timeLoss="12.73" rerouteNo="0" devices="tripinfo_westEastBottom0.0 ssm_westEastBottom0.0" vType="carCustom" speedFactor="1.10" vaporized=""/>
    <tripinfo id="southNorth.2" depart="24.00" departLane="southJunction_1" departPos="5.10" departSpeed="21.94" departDelay="0.36" arrival="94.00" arrivalLane="junctionNorth_0" arrivalPos="492.80" arrivalSpeed="21.02" duration="70.00" routeLength="995.01" waitingTime="3.00" waitingCount="1" stopTime="0.00" timeLoss="24.75" rerouteNo="0" devices="tripinfo_southNorth.2 ssm_southNorth.2" vType="carCustom" speedFactor="1.04" vaporized=""/>
    <tripinfo id="southEast.3" depart="30.00" departLane="southJunction_0" departPos="5.10" departSpeed="17.65" departDelay="0.03" arrival="97.00" arrivalLane="junctionEast_1" arrivalPos="492.80" arrivalSpeed="20.97" duration="67.00" routeLength="989.53" waitingTime="5.00" waitingCount="1" stopTime="0.00" timeLoss="20.86" rerouteNo="0" devices="tripinfo_southEast.3 ssm_southEast.3" vType="carCustom" speedFactor="1.17" vaporized=""/>
    <tripinfo id="westEastBottom0.3" depart="41.00" departLane="westJunction_0" departPos="5.10" departSpeed="14.01" departDelay="3.93" arrival="103.00" arrivalLane="junctionEast_1" arrivalPos="492.80" arrivalSpeed="22.14" duration="62.00" routeLength="994.90" waitingTime="0.00" waitingCount="0" stopTime="0.00" timeLoss="17.06" rerouteNo="0" devices="tripinfo_westEastBottom0.3 ssm_westEastBottom0.3" vType="carCustom" speedFactor="0.87" vaporized=""/>
    <tripinfo id="southEast.4" depart="33.00" departLane="southJunction_0" departPos="5.10" departSpeed="19.68" departDelay="0.22" arrival="108.00" arrivalLane="junctionEast_1" arrivalPos="492.80" arrivalSpeed="21.59" duration="75.00" routeLength="989.53" waitingTime="3.00" waitingCount="1" stopTime="0.00" timeLoss="29.70" rerouteNo="0" devices="tripinfo_southEast.4 ssm_southEast.4" vType="carCustom" speedFactor="1.07" vaporized=""/>
    <tripinfo id="westEastBottom0.1" depart="37.00" departLane="westJunction_0" departPos="5.10" departSpeed="21.64" departDelay="2.55" arrival="110.00" arrivalLane="junctionEast_0" arrivalPos="492.80" arrivalSpeed="21.99" duration="73.00" routeLength="994.90" waitingTime="0.00" waitingCount="0" stopTime="0.00" timeLoss="27.27" rerouteNo="0" devices="tripinfo_westEastBottom0.1 ssm_westEastBottom0.1" vType="carCustom" speedFactor="1.03" vaporized=""/>
    <tripinfo id="southNorth.3" depart="43.00" departLane="southJunction_1" departPos="5.10" departSpeed="16.98" departDelay="0.39" arrival="111.00" arrivalLane="junctionNorth_0" arrivalPos="492.80" arrivalSpeed="22.10" duration="68.00" routeLength="995.01" waitingTime="7.00" waitingCount="1" stopTime="0.00" timeLoss="23.01" rerouteNo="0" devices="tripinfo_southNorth.3 ssm_southNorth.3" vType="carCustom" speedFactor="1.15" vaporized=""/>
    <tripinfo id="westEastTop.4" depart="35.00" departLane="westJunction_1" departPos="5.10" departSpeed="14.75" departDelay="0.28" arrival="114.00" arrivalLane="junctionEast_1" arrivalPos="492.80" arrivalSpeed="21.13" duration="79.00" routeLength="994.90" waitingTime="0.00" waitingCount="0" stopTime="0.00" timeLoss="33.91" rerouteNo="0" devices="tripinfo_westEastTop.4 ssm_westEastTop.4" vType="carCustom" speedFactor="1.02" vaporized=""/>
    <tripinfo id="southEast.5" depart="37.00" departLane="southJunction_0" departPos="5.10" departSpeed="13.47" departDelay="0.66" arrival="116.00" arrivalLane="junctionEast_0" arrivalPos="492.80" arrivalSpeed="21.96" duration="79.00" routeLength="989.53" waitingTime="0.00" waitingCount="0" stopTime="0.00" timeLoss="32.29" rerouteNo="0" devices="tripinfo_southEast.5 ssm_southEast.5" vType="carCustom" speedFactor="0.93" vaporized=""/>
    <tripinfo id="westEastBottom0.2" depart="39.00" departLane="westJunction_0" departPos="5.10" departSpeed="17.32" departDelay="2.31" arrival="120.00" arrivalLane="junctionEast_1" arrivalPos="492.80" arrivalSpeed="22.05" duration="81.00" routeLength="994.90" waitingTime="0.00" waitingCount="0" stopTime="0.00" timeLoss="35.80" rerouteNo="0" devices="tripinfo_westEastBottom0.2 ssm_westEastBottom0.2" vType="carCustom" speedFactor="1.12" vaporized=""/>
    <tripinfo id="southEast.6" depart="39.00" departLane="southJunction_0" departPos="5.10" departSpeed="11.21" departDelay="1.20" arrival="122.00" arrivalLane="junctionEast_0" arrivalPos="492.80" arrivalSpeed="21.10" duration="83.00" routeLength="989.53" waitingTime="0.00" waitingCount="0" stopTime="0.00" timeLoss="36.53" rerouteNo="0" devices="tripinfo_southEast.6 ssm_southEast.6" vType="carCustom" speedFactor="1.02" vaporized=""/>
    <tripinfo id="westEastTop.5" depart="43.00" departLane="westJunction_1" departPos="5.10" departSpeed="14.83" departDelay="0.61" arrival="126.00" arrivalLane="junctionEast_1" arrivalPos="492.80" arrivalSpeed="21.71" duration="83.00" routeLength="994.90" waitingTime="0.00" waitingCount="0" stopTime="0.00" timeLoss="37.72" rerouteNo="0" devices="tripinfo_westEastTop.5 ssm_westEastTop.5" vType="carCustom" speedFactor="1.07" vaporized=""/>
    <tripinfo id="westEastBottom0.4" depart="54.00" departLane="westJunction_0" departPos="5.10" departSpeed="15.99" departDelay="0.52" arrival="128.00" arrivalLane="junctionEast_0" arrivalPos="492.80" arrivalSpeed="21.27" duration="74.00" routeLength="994.90" waitingTime="0.00" waitingCount="0" stopTime="0.00" timeLoss="28.84" rerouteNo="0" devices="tripinfo_westEastBottom0.4 ssm_westEastBottom0.4" vType="carCustom" speedFactor="1.03" vaporized=""/>
    <tripinfo id="westEastTop.6" depart="47.00" departLane="westJunction_1" departPos="5.10" departSpeed="11.33" departDelay="0.29" arrival="132.00" arrivalLane="junctionEast_1" arrivalPos="492.80" arrivalSpeed="21.76" duration="85.00" routeLength="994.90" waitingTime="0.00" waitingCount="0" stopTime="0.00" timeLoss="39.60" rerouteNo="0" devices="tripinfo_westEastTop.6 ssm_westEastTop.6" vType="carCustom" speedFactor="1.01" vaporized=""/>
    <tripinfo id="southEast.7" depart="44.00" departLane="southJunction_0" departPos="5.10" departSpeed="8.63" departDelay="0.95" arrival="134.00" arrivalLane="junctionEast_0" arrivalPos="492.80" arrivalSpeed="21.40" duration="90.00" routeLength="989.53" waitingTime="0.00" waitingCount="0" stopTime="0.00" timeLoss="43.85" rerouteNo="0" devices="tripinfo_southEast.7 ssm_southEast.7" vType="carCustom" speedFactor="0.99" vaporized=""/>
    <tripinfo id="westEastBottom0.5" depart="56.00" departLane="westJunction_0" departPos="5.10" departSpeed="16.62" departDelay="2.28" arrival="138.00" arrivalLane="junctionEast_1" arrivalPos="492.80" arrivalSpeed="21.38" duration="82.00" routeLength="994.90" waitingTime="0.00" waitingCount="0" stopTime="0.00" timeLoss="36.46" rerouteNo="0" devices="tripinfo_westEastBottom0.5 ssm_westEastBottom0.5" vType="carCustom" speedFactor="1.12" vaporized=""/>
    <tripinfo id="westEastBottom0.6" depart="58.00" departLane="westJunction_0" departPos="5.10" departSpeed="12.66" departDelay="2.71" arrival="140.00" arrivalLane="junctionEast_0" arrivalPos="492.80" arrivalSpeed="21.30" duration="82.00" routeLength="994.90" waitingTime="0.00" waitingCount="0" stopTime="0.00" timeLoss="36.50" rerouteNo="0" devices="tripinfo_westEastBottom0.6 ssm_westEastBottom0.6" vType="carCustom" speedFactor="1.10" vaporized=""/>
    <tripinfo id="westEastTop.7" depart="55.00" departLane="westJunction_1" departPos="5.10" departSpeed="10.53" departDelay="0.27" arrival="143.00" arrivalLane="junctionEast_1" arrivalPos="492.80" arrivalSpeed="21.20" duration="88.00" routeLength="994.90" waitingTime="0.00" waitingCount="0" stopTime="0.00" timeLoss="43.14" rerouteNo="0" devices="tripinfo_westEastTop.7 ssm_westEastTop.7" vType="carCustom" speedFactor="1.12" vaporized=""/>
    <tripinfo id="southEast.8" depart="59.00" departLane="southJunction_0" departPos="5.10" departSpeed="10.44" departDelay="0.57" arrival="146.00" arrivalLane="junctionEast_0" arrivalPos="492.80" arrivalSpeed="20.98" duration="87.00" routeLength="989.53" waitingTime="2.00" waitingCount="1" stopTime="0.00" timeLoss="40.46" rerouteNo="0" devices="tripinfo_southEast.8 ssm_southEast.8" vType="carCustom" speedFactor="0.95" vaporized=""/>
    <tripinfo id="westEastTop.8" depart="62.00" departLane="westJunction_1" departPos="5.10" departSpeed="12.06" departDelay="0.58" arrival="149.00" arrivalLane="junctionEast_1" arrivalPos="492.80" arrivalSpeed="21.07" duration="87.00" routeLength="994.90" waitingTime="0.00" waitingCount="0" stopTime="0.00" timeLoss="41.87" rerouteNo="0" devices="tripinfo_westEastTop.8 ssm_westEastTop.8" vType="carCustom" speedFactor="1.01" vaporized=""/>
    <tripinfo id="westEastBottom0.7" depart="61.00" departLane="westJunction_0" departPos="5.10" departSpeed="7.48" departDelay="0.08" arrival="151.00" arrivalLane="junctionEast_0" arrivalPos="492.80" arrivalSpeed="21.76" duration="90.00" routeLength="994.90" waitingTime="0.00" waitingCount="0" stopTime="0.00" timeLoss="45.15" rerouteNo="0" devices="tripinfo_westEastBottom0.7 ssm_westEastBottom0.7" vType="carCustom" speedFactor="0.90" vaporized=""/>
    <tripinfo id="southNorth.4" depart="47.00" departLane="southJunction_1" departPos="5.10" departSpeed="21.92" departDelay="0.85" arrival="154.00" arrivalLane="junctionNorth_0" arrivalPos="492.80" arrivalSpeed="21.75" duration="107.00" routeLength="995.01" waitingTime="38.00" waitingCount="1" stopTime="0.00" timeLoss="61.43" rerouteNo="0" devices="tripinfo_southNorth.4 ssm_southNorth.4" vType="carCustom" speedFactor="0.94" vaporized=""/>
    <tripinfo id="westEastTop.9" depart="65.00" departLane="westJunction_1" departPos="5.10" departSpeed="12.76" departDelay="0.24" arrival="155.00" arrivalLane="junctionEast_1" arrivalPos="492.80" arrivalSpeed="21.06" duration="90.00" routeLength="994.90" waitingTime="0.00" waitingCount="0" stopTime="0.00" timeLoss="44.64" rerouteNo="0" devices="tripinfo_westEastTop.9 ssm_westEastTop.9" vType="carCustom" speedFactor="0.93" vaporized=""/>
    <tripinfo id="southEast.10" depart="64.00" departLane="southJunction_0" departPos="5.10" departSpeed="9.40" departDelay="0.22" arrival="157.00" arrivalLane="junctionEast_0" arrivalPos="492.80" arrivalSpeed="21.22" duration="93.00" routeLength="989.53" waitingTime="3.00" waitingCount="1" stopTime="0.00" timeLoss="47.21" rerouteNo="0" devices="tripinfo_southEast.10 ssm_southEast.10" vType="carCustom" speedFactor="0.88" vaporized=""/>
    <tripinfo id="westEastBottom0.8" depart="74.00" departLane="westJunction_0" departPos="5.10" departSpeed="9.55" departDelay="0.70" arrival="160.00" arrivalLane="junctionEast_1" arrivalPos="492.80" arrivalSpeed="21.70" duration="86.00" routeLength="994.90" waitingTime="0.00" waitingCount="0" stopTime="0.00" timeLoss="41.20" rerouteNo="0" devices="tripinfo_westEastBottom0.8 ssm_westEastBottom0.8" vType="carCustom" speedFactor="1.05" vaporized=""/>
    <tripinfo id="southEast.9" depart="61.00" departLane="southJunction_0" departPos="5.10" departSpeed="14.39" departDelay="1.11" arrival="163.00" arrivalLane="junctionEast_0" arrivalPos="492.80" arrivalSpeed="21.96" duration="102.00" routeLength="989.53" waitingTime="0.00" waitingCount="0" stopTime="0.00" timeLoss="55.67" rerouteNo="0" devices="tripinfo_southEast.9 ssm_southEast.9" vType="carCustom" speedFactor="1.01" vaporized=""/>
    <tripinfo id="westEastTop.10" depart="70.00" departLane="westJunction_1" departPos="5.10" departSpeed="8.70" departDelay="0.84" arrival="166.00" arrivalLane="junctionEast_1" arrivalPos="492.80" arrivalSpeed="21.65" duration="96.00" routeLength="994.90" waitingTime="0.00" waitingCount="0" stopTime="0.00" timeLoss="50.64" rerouteNo="0" devices="tripinfo_westEastTop.10 ssm_westEastTop.10" vType="carCustom" speedFactor="1.12" vaporized=""/>
    <tripinfo id="southEast.11" depart="73.00" departLane="southJunction_0" departPos="5.10" departSpeed="11.69" departDelay="0.00" arrival="168.00" arrivalLane="junctionEast_0" arrivalPos="492.80" arrivalSpeed="21.27" duration="95.00" routeLength="989.53" waitingTime="0.00" waitingCount="0" stopTime="0.00" timeLoss="49.27" rerouteNo="0" devices="tripinfo_southEast.11 ssm_southEast.11" vType="carCustom" speedFactor="1.14" vaporized=""/>
    <tripinfo id="westEastBottom0.9" depart="78.00" departLane="westJunction_0" departPos="5.10" departSpeed="13.62" departDelay="0.67" arrival="171.00" arrivalLane="junctionEast_1" arrivalPos="492.80" arrivalSpeed="21.28" duration="93.00" routeLength="994.90" waitingTime="0.00" waitingCount="0" stopTime="0.00" timeLoss="48.18" rerouteNo="0" devices="tripinfo_westEastBottom0.9 ssm_westEastBottom0.9" vType="carCustom" speedFactor="0.99" vaporized=""/>
    <tripinfo id="southEast.14" depart="83.00" departLane="southJunction_0" departPos="5.10" departSpeed="8.97" departDelay="0.82" arrival="174.00" arrivalLane="junctionEast_0" arrivalPos="492.80" arrivalSpeed="21.12" duration="91.00" routeLength="989.53" waitingTime="0.00" waitingCount="0" stopTime="0.00" timeLoss="45.10" rerouteNo="0" devices="tripinfo_southEast.14 ssm_southEast.14" vType="carCustom" speedFactor="1.07" vaporized=""/>
    <tripinfo id="westEastTop.11" depart="76.00" departLane="westJunction_1" departPos="5.10" departSpeed="9.58" departDelay="0.86" arrival="177.00" arrivalLane="junctionEast_1" arrivalPos="492.80" arrivalSpeed="21.05" duration="101.00" routeLength="994.90" waitingTime="2.00" waitingCount="1" stopTime="0.00" timeLoss="55.50" rerouteNo="0" devices="tripinfo_westEastTop.11 ssm_westEastTop.11" vType="carCustom" speedFactor="0.98" vaporized=""/>
    <tripinfo id="southEast.12" depart="77.00" departLane="southJunction_0" departPos="5.10" departSpeed="15.83" departDelay="0.21" arrival="179.00" arrivalLane="junctionEast_0" arrivalPos="492.80" arrivalSpeed="21.64" duration="102.00" routeLength="989.53" waitingTime="0.00" waitingCount="0" stopTime="0.00" timeLoss="56.06" rerouteNo="0" devices="tripinfo_southEast.12 ssm_southEast.12" vType="carCustom" speedFactor="1.04" vaporized=""/>
    <tripinfo id="westEastTop.12" depart="79.00" departLane="westJunction_1" departPos="5.10" departSpeed="8.99" departDelay="0.75" arrival="182.00" arrivalLane="junctionEast_1" arrivalPos="492.80" arrivalSpeed="21.36" duration="103.00" routeLength="994.90" waitingTime="0.00" waitingCount="0" stopTime="0.00" timeLoss="58.03" rerouteNo="0" devices="tripinfo_westEastTop.12 ssm_westEastTop.12" vType="carCustom" speedFactor="1.02" vaporized=""/>
    <tripinfo id="westEastBottom0.10" depart="86.00" departLane="westJunction_0" departPos="5.10" departSpeed="10.61" departDelay="0.70" arrival="185.00" arrivalLane="junctionEast_0" arrivalPos="492.80" arrivalSpeed="22.17" duration="99.00" routeLength="994.90" waitingTime="0.00" waitingCount="0" stopTime="0.00" timeLoss="53.32" rerouteNo="0" devices="tripinfo_westEastBottom0.10 ssm_westEastBottom0.10" vType="carCustom" speedFactor="0.92" vaporized=""/>
    <tripinfo id="westEastTop.13" depart="83.00" departLane="westJunction_1" departPos="5.10" departSpeed="7.51" departDelay="0.36" arrival="188.00" arrivalLane="junctionEast_1" arrivalPos="492.80" arrivalSpeed="21.46" duration="105.00" routeLength="994.90" waitingTime="0.00" waitingCount="0" stopTime="0.00" timeLoss="59.40" rerouteNo="0" devices="tripinfo_westEastTop.13 ssm_westEastTop.13" vType="carCustom" speedFactor="1.08" vaporized=""/>
    <tripinfo id="westEastBottom0.11" depart="94.00" departLane="westJunction_0" departPos="5.10" departSpeed="12.59" departDelay="0.09" arrival="190.00" arrivalLane="junctionEast_0" arrivalPos="492.80" arrivalSpeed="21.25" duration="96.00" routeLength="994.90" waitingTime="0.00" waitingCount="0" stopTime="0.00" timeLoss="50.74" rerouteNo="0" devices="tripinfo_westEastBottom0.11 ssm_westEastBottom0.11" vType="carCustom" speedFactor="0.99" vaporized=""/>
    <tripinfo id="westEastTop.14" depart="86.00" departLane="westJunction_1" departPos="5.10" departSpeed="5.73" departDelay="0.97" arrival="193.00" arrivalLane="junctionEast_1" arrivalPos="492.80" arrivalSpeed="21.98" duration="107.00" routeLength="994.90" waitingTime="0.00" waitingCount="0" stopTime="0.00" timeLoss="61.91" rerouteNo="0" devices="tripinfo_westEastTop.14 ssm_westEastTop.14" vType="carCustom" speedFactor="1.08" vaporized=""/>
    <tripinfo id="southEast.13" depart="80.00" departLane="southJunction_0" departPos="5.10" departSpeed="11.38" departDelay="0.71" arrival="195.00" arrivalLane="junctionEast_0" arrivalPos="492.80" arrivalSpeed="21.58" duration="115.00" routeLength="989.53" waitingTime="5.00" waitingCount="1" stopTime="0.00" timeLoss="69.56" rerouteNo="0" devices="tripinfo_southEast.13 ssm_southEast.13" vType="carCustom" speedFactor="1.01" vaporized=""/>
    <tripinfo id="westEastBottom0.12" depart="106.00" departLane="westJunction_0" departPos="5.10" departSpeed="12.38" departDelay="0.63" arrival="198.00" arrivalLane="junctionEast_1" arrivalPos="492.80" arrivalSpeed="21.51" duration="92.00" routeLength="994.90" waitingTime="0.00" waitingCount="0" stopTime="0.00" timeLoss="47.22" rerouteNo="0" devices="tripinfo_westEastBottom0.12 ssm_westEastBottom0.12" vType="carCustom" speedFactor="0.92" vaporized=""/>
    <tripinfo id="westEastBottom0.17" depart="161.00" departLane="westJunction_0" departPos="5.10" departSpeed="17.03" departDelay="0.13" arrival="200.00" arrivalLane="junctionEast_0" arrivalPos="492.80" arrivalSpeed="6.80" duration="39.00" routeLength="994.90" waitingTime="0.00" waitingCount="0" stopTime="0.00" timeLoss="16.33" rerouteNo="0" devices="tripinfo_westEastBottom0.17 ssm_westEastBottom0.17" vType="carCustom" speedFactor="1.09" vaporized="teleport"/>
    <tripinfo id="westEastBottom0.13" depart="109.00" departLane="westJunction_0" departPos="5.10" departSpeed="15.63" departDelay="0.50" arrival="201.00" arrivalLane="junctionEast_0" arrivalPos="492.80" arrivalSpeed="22.05" duration="92.00" routeLength="994.90" waitingTime="0.00" waitingCount="0" stopTime="0.00" timeLoss="46.45" rerouteNo="0" devices="tripinfo_westEastBottom0.13 ssm_westEastBottom0.13" vType="carCustom" speedFactor="1.21" vaporized=""/>
    <tripinfo id="westEastTop.15" depart="89.00" departLane="westJunction_1" departPos="5.10" departSpeed="5.32" departDelay="2.45" arrival="204.00" arrivalLane="junctionEast_1" arrivalPos="492.80" arrivalSpeed="21.73" duration="115.00" routeLength="994.90" waitingTime="0.00" waitingCount="0" stopTime="0.00" timeLoss="69.51" rerouteNo="0" devices="tripinfo_westEastTop.15 ssm_westEastTop.15" vType="carCustom" speedFactor="0.84" vaporized=""/>
    <tripinfo id="southNorth.5" depart="95.00" departLane="southJunction_1" departPos="5.10" departSpeed="21.79" departDelay="0.28" arrival="204.00" arrivalLane="junctionNorth_0" arrivalPos="492.80" arrivalSpeed="21.25" duration="109.00" routeLength="995.01" waitingTime="44.00" waitingCount="1" stopTime="0.00" timeLoss="63.73" rerouteNo="0" devices="tripinfo_southNorth.5 ssm_southNorth.5" vType="carCustom" speedFactor="0.81" vaporized=""/>
    <tripinfo id="southEast.15" depart="88.00" departLane="southJunction_0" departPos="5.10" departSpeed="10.83" departDelay="0.59" arrival="206.00" arrivalLane="junctionEast_0" arrivalPos="492.80" arrivalSpeed="21.52" duration="118.00" routeLength="989.53" waitingTime="5.00" waitingCount="1" stopTime="0.00" timeLoss="71.49" rerouteNo="0" devices="tripinfo_southEast.15 ssm_southEast.15" vType="carCustom" speedFactor="0.78" vaporized=""/>
    <tripinfo id="westEastTop.16" depart="93.00" departLane="westJunction_1" departPos="5.10" departSpeed="4.07" departDelay="6.26" arrival="209.00" arrivalLane="junctionEast_1" arrivalPos="492.80" arrivalSpeed="21.58" duration="116.00" routeLength="994.90" waitingTime="0.00" waitingCount="0" stopTime="0.00" timeLoss="71.04" rerouteNo="0" devices="tripinfo_westEastTop.16 ssm_westEastTop.16" vType="carCustom" speedFactor="1.05" vaporized=""/>
    <tripinfo id="southNorth.6" depart="101.00" departLane="southJunction_1" departPos="5.10" departSpeed="20.06" departDelay="0.90" arrival="211.00" arrivalLane="junctionNorth_0" arrivalPos="492.80" arrivalSpeed="21.53" duration="110.00" routeLength="995.01" waitingTime="36.00" waitingCount="1" stopTime="0.00" timeLoss="64.88" rerouteNo="0" devices="tripinfo_southNorth.6 ssm_southNorth.6" vType="carCustom" speedFactor="1.11" vaporized=""/>
    <tripinfo id="westEastBottom0.14" depart="115.00" departLane="westJunction_0" departPos="5.10" departSpeed="11.94" departDelay="0.78" arrival="211.00" arrivalLane="junctionEast_0" arrivalPos="492.80" arrivalSpeed="22.15" duration="96.00" routeLength="994.90" waitingTime="0.00" waitingCount="0" stopTime="0.00" timeLoss="50.97" rerouteNo="0" devices="tripinfo_westEastBottom0.14 ssm_westEastBottom0.14" vType="carCustom" speedFactor="1.19" vaporized=""/>
    <tripinfo id="westEastTop.17" depart="97.00" departLane="westJunction_1" departPos="5.10" departSpeed="4.26" departDelay="5.05" arrival="215.00" arrivalLane="junctionEast_1" arrivalPos="492.80" arrivalSpeed="20.94" duration="118.00" routeLength="994.90" waitingTime="0.00" waitingCount="0" stopTime="0.00" timeLoss="72.31" rerouteNo="0" devices="tripinfo_westEastTop.17 ssm_westEastTop.17" vType="carCustom" speedFactor="1.21" vaporized=""/>
    <tripinfo id="southEast.16" depart="130.00" departLane="southJunction_0" departPos="5.10" departSpeed="5.92" departDelay="0.31" arrival="216.00" arrivalLane="junctionEast_0" arrivalPos="492.80" arrivalSpeed="21.63" duration="86.00" routeLength="989.53" waitingTime="0.00" waitingCount="0" stopTime="0.00" timeLoss="40.25" rerouteNo="0" devices="tripinfo_southEast.16 ssm_southEast.16" vType="carCustom" speedFactor="0.87" vaporized=""/>
    <tripinfo id="westEastTop.18" depart="105.00" departLane="westJunction_1" departPos="5.10" departSpeed="5.69" departDelay="0.93" arrival="220.00" arrivalLane="junctionEast_1" arrivalPos="492.80" arrivalSpeed="21.11" duration="115.00" routeLength="994.90" waitingTime="0.00" waitingCount="0" stopTime="0.00" timeLoss="69.60" rerouteNo="0" devices="tripinfo_westEastTop.18 ssm_westEastTop.18" vType="carCustom" speedFactor="0.98" vaporized=""/>
    <tripinfo id="westEastBottom0.15" depart="143.00" departLane="westJunction_0" departPos="5.10" departSpeed="12.32" departDelay="0.21" arrival="222.00" arrivalLane="junctionEast_0" arrivalPos="492.80" arrivalSpeed="22.09" duration="79.00" routeLength="994.90" waitingTime="0.00" waitingCount="0" stopTime="0.00" timeLoss="33.26" rerouteNo="0" devices="tripinfo_westEastBottom0.15 ssm_westEastBottom0.15" vType="carCustom" speedFactor="1.00" vaporized=""/>
    <tripinfo id="westEastTop.19" depart="108.00" departLane="westJunction_1" departPos="5.10" departSpeed="5.78" departDelay="2.07" arrival="225.00" arrivalLane="junctionEast_1" arrivalPos="492.80" arrivalSpeed="22.06" duration="117.00" routeLength="994.90" waitingTime="0.00" waitingCount="0" stopTime="0.00" timeLoss="71.80" rerouteNo="0" devices="tripinfo_westEastTop.19 ssm_westEastTop.19" vType="carCustom" speedFactor="1.08" vaporized=""/>
    <tripinfo id="southEast.17" depart="143.00" departLane="southJunction_0" departPos="5.10" departSpeed="21.33" departDelay="0.37" arrival="227.00" arrivalLane="junctionEast_0" arrivalPos="492.80" arrivalSpeed="21.52" duration="84.00" routeLength="989.53" waitingTime="0.00" waitingCount="0" stopTime="0.00" timeLoss="37.69" rerouteNo="0" devices="tripinfo_southEast.17 ssm_southEast.17" vType="carCustom" speedFactor="0.80" vaporized=""/>
    <tripinfo id="westEastTop.20" depart="111.00" departLane="westJunction_1" departPos="5.10" departSpeed="4.79" departDelay="4.57" arrival="230.00" arrivalLane="junctionEast_1" arrivalPos="492.80" arrivalSpeed="21.87" duration="119.00" routeLength="994.90" waitingTime="0.00" waitingCount="0" stopTime="0.00" timeLoss="74.00" rerouteNo="0" devices="tripinfo_westEastTop.20 ssm_westEastTop.20" vType="carCustom" speedFactor="0.98" vaporized=""/>