<?xml version="1.0" encoding="UTF-8"?>

<!-- generated on 2025-04-29 02:28:13 by Eclipse SUMO sumo Version 1.20.0
<configuration xmlns:xsi="http://www.w3.org/2001/XMLSchema-instance" xsi:noNamespaceSchemaLocation="http://sumo.dlr.de/xsd/sumoConfiguration.xsd">

    <input>
        <net-file value="nets/2lane_unprotected_right/2lane_unprotected_right.net.xml"/>
        <route-files value="nets/2lane_unprotected_right/2lane_unprotected_right.rou.xml"/>
    </input>

    <output>
        <tripinfo-output value="traces/transs50f0.5_s50_f1_random/0000_tripinfo.xml"/>
        <collision-output value="traces/transs50f0.5_s50_f1_random/0000_collisions.xml"/>
        <statistic-output value="traces/transs50f0.5_s50_f1_random/0000_statistics.xml"/>
    </output>

    <processing>
        <collision.action value="teleport"/>
        <collision.check-junctions value="true"/>
        <time-to-teleport value="-1"/>
        <waiting-time-memory value="1000"/>
        <max-depart-delay value="-1"/>
        <default.speeddev value="0.1"/>
    </processing>

    <report>
        <no-warnings value="true"/>
    </report>

    <ssm_device>
        <device.ssm.probability value="1.0"/>
        <device.ssm.measures value="BR"/>
        <device.ssm.file value="/Users/finn/Code/CausalKnowledgeTransfer-4-SafeRL/traces/transs50f0.5_s50_f1_random/0000_ssm.xml"/>
    </ssm_device>

    <traci_server>
        <remote-port value="62383"/>
    </traci_server>

    <random_number>
        <random value="true"/>
    </random_number>

</configuration>
-->

<tripinfos xmlns:xsi="http://www.w3.org/2001/XMLSchema-instance" xsi:noNamespaceSchemaLocation="http://sumo.dlr.de/xsd/tripinfo_file.xsd">
    <tripinfo id="southNorth.0" depart="3.00" departLane="southJunction_1" departPos="5.10" departSpeed="6.60" departDelay="0.38" arrival="52.00" arrivalLane="junctionNorth_0" arrivalPos="492.80" arrivalSpeed="22.08" duration="49.00" routeLength="995.01" waitingTime="0.00" waitingCount="0" stopTime="0.00" timeLoss="4.01" rerouteNo="0" devices="tripinfo_southNorth.0 ssm_southNorth.0" vType="carCustom" speedFactor="0.98" vaporized=""/>
    <tripinfo id="westEastBottom0.1" depart="11.00" departLane="westJunction_0" departPos="5.10" departSpeed="21.72" departDelay="5.11" arrival="58.00" arrivalLane="junctionEast_0" arrivalPos="492.80" arrivalSpeed="22.06" duration="47.00" routeLength="980.50" waitingTime="1.00" waitingCount="1" stopTime="0.00" timeLoss="1.94" rerouteNo="0" devices="tripinfo_westEastBottom0.1 ssm_westEastBottom0.1" vType="carCustom" speedFactor="0.98" vaporized=""/>
    <tripinfo id="westEastTop.0" depart="6.00" departLane="westJunction_1" departPos="5.10" departSpeed="6.60" departDelay="0.13" arrival="77.00" arrivalLane="junctionEast_0" arrivalPos="492.80" arrivalSpeed="22.07" duration="71.00" routeLength="994.90" waitingTime="2.00" waitingCount="1" stopTime="0.00" timeLoss="25.07" rerouteNo="0" devices="tripinfo_westEastTop.0 ssm_westEastTop.0" vType="carCustom" speedFactor="0.91" vaporized=""/>
    <tripinfo id="westEastBottom0.0" depart="1.00" departLane="westJunction_0" departPos="5.10" departSpeed="22.22" departDelay="0.34" arrival="97.00" arrivalLane="junctionEast_0" arrivalPos="492.80" arrivalSpeed="21.81" duration="96.00" routeLength="994.90" waitingTime="13.00" waitingCount="1" stopTime="0.00" timeLoss="50.16" rerouteNo="0" devices="tripinfo_westEastBottom0.0 ssm_westEastBottom0.0" vType="carCustom" speedFactor="0.92" vaporized=""/>
    <tripinfo id="westEastTop.1" depart="35.00" departLane="westJunction_1" departPos="5.10" departSpeed="0.00" departDelay="15.71" arrival="101.00" arrivalLane="junctionEast_0" arrivalPos="492.80" arrivalSpeed="21.81" duration="66.00" routeLength="994.90" waitingTime="2.00" waitingCount="1" stopTime="0.00" timeLoss="19.66" rerouteNo="0" devices="tripinfo_westEastTop.1 ssm_westEastTop.1" vType="carCustom" speedFactor="0.96" vaporized=""/>
    <tripinfo id="southEast.1" depart="16.00" departLane="southJunction_0" departPos="5.10" departSpeed="9.38" departDelay="0.69" arrival="124.00" arrivalLane="junctionEast_0" arrivalPos="492.80" arrivalSpeed="22.09" duration="108.00" routeLength="989.53" waitingTime="0.00" waitingCount="0" stopTime="0.00" timeLoss="61.81" rerouteNo="0" devices="tripinfo_southEast.1 ssm_southEast.1" vType="carCustom" speedFactor="1.01" vaporized=""/>
    <tripinfo id="westEastBottom0.2" depart="35.00" departLane="westJunction_0" departPos="5.10" departSpeed="0.00" departDelay="16.80" arrival="137.00" arrivalLane="junctionEast_0" arrivalPos="492.80" arrivalSpeed="21.93" duration="102.00" routeLength="994.90" waitingTime="4.00" waitingCount="1" stopTime="0.00" timeLoss="56.40" rerouteNo="0" devices="tripinfo_westEastBottom0.2 ssm_westEastBottom0.2" vType="carCustom" speedFactor="1.04" vaporized=""/>
    <tripinfo id="southNorth.1" depart="16.00" departLane="southJunction_1" departPos="5.10" departSpeed="8.67" departDelay="3.18" arrival="146.00" arrivalLane="junctionNorth_0" arrivalPos="492.80" arrivalSpeed="22.15" duration="130.00" routeLength="995.01" waitingTime="3.00" waitingCount="1" stopTime="0.00" timeLoss="83.95" rerouteNo="0" devices="tripinfo_southNorth.1 ssm_southNorth.1" vType="carCustom" speedFactor="0.94" vaporized=""/>
    <tripinfo id="westEastBottom0.3" depart="39.00" departLane="westJunction_0" departPos="5.10" departSpeed="6.25" departDelay="20.65" arrival="150.00" arrivalLane="junctionEast_1" arrivalPos="492.80" arrivalSpeed="22.12" duration="111.00" routeLength="994.90" waitingTime="4.00" waitingCount="1" stopTime="0.00" timeLoss="66.12" rerouteNo="0" devices="tripinfo_westEastBottom0.3 ssm_westEastBottom0.3" vType="carCustom" speedFactor="1.09" vaporized=""/>
    <tripinfo id="southEast.0" depart="13.00" departLane="southJunction_0" departPos="5.10" departSpeed="6.60" departDelay="0.08" arrival="164.00" arrivalLane="junctionEast_1" arrivalPos="492.80" arrivalSpeed="21.94" duration="151.00" routeLength="989.53" waitingTime="0.00" waitingCount="0" stopTime="0.00" timeLoss="105.07" rerouteNo="0" devices="tripinfo_southEast.0 ssm_southEast.0" vType="carCustom" speedFactor="0.93" vaporized=""/>
    <tripinfo id="southEast.3" depart="25.00" departLane="southJunction_0" departPos="5.10" departSpeed="8.75" departDelay="0.20" arrival="179.00" arrivalLane="junctionEast_0" arrivalPos="492.80" arrivalSpeed="21.82" duration="154.00" routeLength="989.53" waitingTime="0.00" waitingCount="0" stopTime="0.00" timeLoss="107.72" rerouteNo="0" devices="tripinfo_southEast.3 ssm_southEast.3" vType="carCustom" speedFactor="1.04" vaporized=""/>
    <tripinfo id="southEast.2" depart="20.00" departLane="southJunction_0" departPos="5.10" departSpeed="9.20" departDelay="0.89" arrival="182.00" arrivalLane="junctionEast_0" arrivalPos="492.80" arrivalSpeed="21.53" duration="162.00" routeLength="989.53" waitingTime="0.00" waitingCount="0" stopTime="0.00" timeLoss="115.70" rerouteNo="0" devices="tripinfo_southEast.2 ssm_southEast.2" vType="carCustom" speedFactor="1.01" vaporized=""/>
    <tripinfo id="southNorth.2" depart="39.00" departLane="southJunction_1" departPos="5.10" departSpeed="6.60" departDelay="2.28" arrival="183.00" arrivalLane="junctionNorth_0" arrivalPos="492.80" arrivalSpeed="22.13" duration="144.00" routeLength="995.01" waitingTime="5.00" waitingCount="1" stopTime="0.00" timeLoss="98.77" rerouteNo="0" devices="tripinfo_southNorth.2 ssm_southNorth.2" vType="carCustom" speedFactor="1.03" vaporized=""/>
    <tripinfo id="westEastBottom0.5" depart="45.00" departLane="westJunction_0" departPos="5.10" departSpeed="5.71" departDelay="10.80" arrival="199.00" arrivalLane="junctionEast_1" arrivalPos="492.80" arrivalSpeed="21.45" duration="154.00" routeLength="994.90" waitingTime="0.00" waitingCount="0" stopTime="0.00" timeLoss="109.14" rerouteNo="0" devices="tripinfo_westEastBottom0.5 ssm_westEastBottom0.5" vType="carCustom" speedFactor="1.07" vaporized=""/>
    <tripinfo id="westEastBottom0.4" depart="42.00" departLane="westJunction_0" departPos="5.10" departSpeed="5.98" departDelay="14.21" arrival="202.00" arrivalLane="junctionEast_1" arrivalPos="492.80" arrivalSpeed="21.97" duration="160.00" routeLength="994.90" waitingTime="0.00" waitingCount="0" stopTime="0.00" timeLoss="115.11" rerouteNo="0" devices="tripinfo_westEastBottom0.4 ssm_westEastBottom0.4" vType="carCustom" speedFactor="0.91" vaporized=""/>
    <tripinfo id="southNorth.3" depart="58.00" departLane="southJunction_1" departPos="5.10" departSpeed="4.89" departDelay="0.66" arrival="217.00" arrivalLane="junctionNorth_0" arrivalPos="492.80" arrivalSpeed="21.89" duration="159.00" routeLength="995.01" waitingTime="0.00" waitingCount="0" stopTime="0.00" timeLoss="114.00" rerouteNo="0" devices="tripinfo_southNorth.3 ssm_southNorth.3" vType="carCustom" speedFactor="1.06" vaporized=""/>
    <tripinfo id="southEast.4" depart="29.00" departLane="southJunction_0" departPos="5.10" departSpeed="8.39" departDelay="0.49" arrival="221.00" arrivalLane="junctionEast_1" arrivalPos="492.80" arrivalSpeed="21.66" duration="192.00" routeLength="989.53" waitingTime="0.00" waitingCount="0" stopTime="0.00" timeLoss="146.23" rerouteNo="0" devices="tripinfo_southEast.4 ssm_southEast.4" vType="carCustom" speedFactor="0.99" vaporized=""/>
    <tripinfo id="southEast.5" depart="52.00" departLane="southJunction_0" departPos="5.10" departSpeed="6.32" departDelay="0.53" arrival="222.00" arrivalLane="junctionEast_1" arrivalPos="492.80" arrivalSpeed="21.29" duration="170.00" routeLength="989.53" waitingTime="0.00" waitingCount="0" stopTime="0.00" timeLoss="123.67" rerouteNo="0" devices="tripinfo_southEast.5 ssm_southEast.5" vType="carCustom" speedFactor="0.98" vaporized=""/>
    <tripinfo id="westEastBottom0.7" depart="68.00" departLane="westJunction_0" departPos="5.10" departSpeed="3.64" departDelay="0.48" arrival="238.00" arrivalLane="junctionEast_1" arrivalPos="492.80" arrivalSpeed="21.97" duration="170.00" routeLength="994.90" waitingTime="5.00" waitingCount="1" stopTime="0.00" timeLoss="124.98" rerouteNo="0" devices="tripinfo_westEastBottom0.7 ssm_westEastBottom0.7" vType="carCustom" speedFactor="0.92" vaporized=""/>
    <tripinfo id="southEast.6" depart="63.00" departLane="southJunction_0" departPos="5.10" departSpeed="5.33" departDelay="0.75" arrival="248.00" arrivalLane="junctionEast_1" arrivalPos="492.80" arrivalSpeed="21.93" duration="185.00" routeLength="989.53" waitingTime="0.00" waitingCount="0" stopTime="0.00" timeLoss="138.65" rerouteNo="0" devices="tripinfo_southEast.6 ssm_southEast.6" vType="carCustom" speedFactor="0.95" vaporized=""/>
    <tripinfo id="westEastTop.2" depart="39.00" departLane="westJunction_1" departPos="5.10" departSpeed="6.21" departDelay="12.37" arrival="259.00" arrivalLane="junctionEast_1" arrivalPos="492.80" arrivalSpeed="21.85" duration="220.00" routeLength="994.90" waitingTime="0.00" waitingCount="0" stopTime="0.00" timeLoss="175.10" rerouteNo="0" devices="tripinfo_westEastTop.2 ssm_westEastTop.2" vType="carCustom" speedFactor="0.93" vaporized=""/>
    <tripinfo id="westEastBottom0.6" depart="49.00" departLane="westJunction_0" departPos="5.10" departSpeed="5.35" departDelay="0.39" arrival="273.00" arrivalLane="junctionEast_1" arrivalPos="492.80" arrivalSpeed="22.18" duration="224.00" routeLength="994.90" waitingTime="1.00" waitingCount="1" stopTime="0.00" timeLoss="178.85" rerouteNo="0" devices="tripinfo_westEastBottom0.6 ssm_westEastBottom0.6" vType="carCustom" speedFactor="1.04" vaporized=""/>
    <tripinfo id="westEastTop.3" depart="42.00" departLane="westJunction_1" departPos="5.10" departSpeed="5.94" departDelay="8.89" arrival="276.00" arrivalLane="junctionEast_1" arrivalPos="492.80" arrivalSpeed="21.07" duration="234.00" routeLength="994.90" waitingTime="3.00" waitingCount="1" stopTime="0.00" timeLoss="188.94" rerouteNo="0" devices="tripinfo_westEastTop.3 ssm_westEastTop.3" vType="carCustom" speedFactor="0.95" vaporized=""/>
    <tripinfo id="southEast.8" depart="84.00" departLane="southJunction_0" departPos="5.10" departSpeed="3.44" departDelay="0.90" arrival="295.00" arrivalLane="junctionEast_1" arrivalPos="492.80" arrivalSpeed="22.17" duration="211.00" routeLength="989.53" waitingTime="0.00" waitingCount="0" stopTime="0.00" timeLoss="165.13" rerouteNo="0" devices="tripinfo_southEast.8 ssm_southEast.8" vType="carCustom" speedFactor="1.11" vaporized=""/>
    <tripinfo id="southNorth.4" depart="68.00" departLane="southJunction_1" departPos="5.10" departSpeed="3.99" departDelay="0.76" arrival="299.00" arrivalLane="junctionNorth_0" arrivalPos="492.80" arrivalSpeed="22.12" duration="231.00" routeLength="995.01" waitingTime="4.00" waitingCount="1" stopTime="0.00" timeLoss="185.53" rerouteNo="0" devices="tripinfo_southNorth.4 ssm_southNorth.4" vType="carCustom" speedFactor="1.00" vaporized=""/>
    <tripinfo id="southEast.7" depart="70.00" departLane="southJunction_0" departPos="5.10" departSpeed="4.70" departDelay="0.25" arrival="301.00" arrivalLane="junctionEast_1" arrivalPos="492.80" arrivalSpeed="21.93" duration="231.00" routeLength="989.53" waitingTime="0.00" waitingCount="0" stopTime="0.00" timeLoss="184.90" rerouteNo="0" devices="tripinfo_southEast.7 ssm_southEast.7" vType="carCustom" speedFactor="0.99" vaporized=""/>
    <tripinfo id="westEastBottom0.9" depart="89.00" departLane="westJunction_0" departPos="5.10" departSpeed="2.12" departDelay="2.39" arrival="308.00" arrivalLane="junctionEast_1" arrivalPos="492.80" arrivalSpeed="21.74" duration="219.00" routeLength="994.90" waitingTime="0.00" waitingCount="0" stopTime="0.00" timeLoss="173.63" rerouteNo="0" devices="tripinfo_westEastBottom0.9 ssm_westEastBottom0.9" vType="carCustom" speedFactor="1.22" vaporized=""/>
    <tripinfo id="westEastBottom0.8" depart="84.00" departLane="westJunction_0" departPos="5.10" departSpeed="2.52" departDelay="0.62" arrival="325.00" arrivalLane="junctionEast_1" arrivalPos="492.80" arrivalSpeed="21.66" duration="241.00" routeLength="994.90" waitingTime="4.00" waitingCount="1" stopTime="0.00" timeLoss="195.24" rerouteNo="0" devices="tripinfo_westEastBottom0.8 ssm_westEastBottom0.8" vType="carCustom" speedFactor="1.14" vaporized=""/>
    <tripinfo id="southEast.9" depart="115.00" departLane="southJunction_0" departPos="5.10" departSpeed="2.60" departDelay="0.53" arrival="328.00" arrivalLane="junctionEast_1" arrivalPos="492.80" arrivalSpeed="21.39" duration="213.00" routeLength="989.53" waitingTime="0.00" waitingCount="0" stopTime="0.00" timeLoss="166.84" rerouteNo="0" devices="tripinfo_southEast.9 ssm_southEast.9" vType="carCustom" speedFactor="1.08" vaporized=""/>
    <tripinfo id="southNorth.5" depart="127.00" departLane="southJunction_1" departPos="5.10" departSpeed="2.56" departDelay="0.60" arrival="330.00" arrivalLane="junctionNorth_0" arrivalPos="492.80" arrivalSpeed="21.64" duration="203.00" routeLength="995.01" waitingTime="3.00" waitingCount="1" stopTime="0.00" timeLoss="157.83" rerouteNo="0" devices="tripinfo_southNorth.5 ssm_southNorth.5" vType="carCustom" speedFactor="0.97" vaporized=""/>
    <tripinfo id="westEastBottom0.10" depart="102.00" departLane="westJunction_0" departPos="5.10" departSpeed="0.95" departDelay="0.23" arrival="340.00" arrivalLane="junctionEast_1" arrivalPos="492.80" arrivalSpeed="22.16" duration="238.00" routeLength="994.90" waitingTime="0.00" waitingCount="0" stopTime="0.00" timeLoss="193.16" rerouteNo="0" devices="tripinfo_westEastBottom0.10 ssm_westEastBottom0.10" vType="carCustom" speedFactor="1.02" vaporized=""/>
    <tripinfo id="westEastTop.4" depart="47.00" departLane="westJunction_1" departPos="5.10" departSpeed="5.49" departDelay="0.56" arrival="356.00" arrivalLane="junctionEast_1" arrivalPos="492.80" arrivalSpeed="21.65" duration="309.00" routeLength="994.90" waitingTime="0.00" waitingCount="0" stopTime="0.00" timeLoss="263.91" rerouteNo="0" devices="tripinfo_westEastTop.4 ssm_westEastTop.4" vType="carCustom" speedFactor="0.87" vaporized=""/>
    <tripinfo id="southEast.10" depart="174.00" departLane="southJunction_0" departPos="5.10" departSpeed="1.92" departDelay="0.50" arrival="359.00" arrivalLane="junctionEast_1" arrivalPos="492.80" arrivalSpeed="21.90" duration="185.00" routeLength="989.53" waitingTime="0.00" waitingCount="0" stopTime="0.00" timeLoss="139.45" rerouteNo="0" devices="tripinfo_southEast.10 ssm_southEast.10" vType="carCustom" speedFactor="1.01" vaporized=""/>
    <tripinfo id="southNorth.6" depart="132.00" departLane="southJunction_1" departPos="5.10" departSpeed="2.11" departDelay="3.36" arrival="360.00" arrivalLane="junctionNorth_0" arrivalPos="492.80" arrivalSpeed="21.95" duration="228.00" routeLength="995.01" waitingTime="2.00" waitingCount="1" stopTime="0.00" timeLoss="182.21" rerouteNo="0" devices="tripinfo_southNorth.6 ssm_southNorth.6" vType="carCustom" speedFactor="1.01" vaporized=""/>
    <tripinfo id="westEastTop.5" depart="50.00" departLane="westJunction_1" departPos="5.10" departSpeed="5.22" departDelay="2.40" arrival="377.00" arrivalLane="junctionEast_1" arrivalPos="492.80" arrivalSpeed="21.92" duration="327.00" routeLength="994.90" waitingTime="0.00" waitingCount="0" stopTime="0.00" timeLoss="282.20" rerouteNo="0" devices="tripinfo_westEastTop.5 ssm_westEastTop.5" vType="carCustom" speedFactor="0.97" vaporized=""/>
    <tripinfo id="westEastBottom0.12" depart="130.00" departLane="westJunction_0" departPos="5.10" departSpeed="0.67" departDelay="1.48" arrival="388.00" arrivalLane="junctionEast_1" arrivalPos="492.80" arrivalSpeed="22.05" duration="258.00" routeLength="994.90" waitingTime="1.00" waitingCount="1" stopTime="0.00" timeLoss="212.51" rerouteNo="0" devices="tripinfo_westEastBottom0.12 ssm_westEastBottom0.12" vType="carCustom" speedFactor="1.00" vaporized=""/>
    <tripinfo id="southNorth.7" depart="148.00" departLane="southJunction_1" departPos="5.10" departSpeed="0.74" departDelay="0.65" arrival="390.00" arrivalLane="junctionNorth_0" arrivalPos="492.80" arrivalSpeed="22.16" duration="242.00" routeLength="995.01" waitingTime="3.00" waitingCount="1" stopTime="0.00" timeLoss="196.98" rerouteNo="0" devices="tripinfo_southNorth.7 ssm_southNorth.7" vType="carCustom" speedFactor="0.89" vaporized=""/>
    <tripinfo id="southEast.11" depart="180.00" departLane="southJunction_0" departPos="5.10" departSpeed="3.12" departDelay="0.60" arrival="396.00" arrivalLane="junctionEast_1" arrivalPos="492.80" arrivalSpeed="21.54" duration="216.00" routeLength="989.53" waitingTime="0.00" waitingCount="0" stopTime="0.00" timeLoss="170.47" rerouteNo="0" devices="tripinfo_southEast.11 ssm_southEast.11" vType="carCustom" speedFactor="0.83" vaporized=""/>
    <tripinfo id="westEastTop.6" depart="53.00" departLane="westJunction_1" departPos="5.10" departSpeed="4.95" departDelay="3.02" arrival="413.00" arrivalLane="junctionEast_1" arrivalPos="492.80" arrivalSpeed="21.88" duration="360.00" routeLength="994.90" waitingTime="0.00" waitingCount="0" stopTime="0.00" timeLoss="314.40" rerouteNo="0" devices="tripinfo_westEastTop.6 ssm_westEastTop.6" vType="carCustom" speedFactor="1.01" vaporized=""/>
    <tripinfo id="southNorth.8" depart="157.00" departLane="southJunction_1" departPos="5.10" departSpeed="0.90" departDelay="6.10" arrival="418.00" arrivalLane="junctionNorth_0" arrivalPos="492.80" arrivalSpeed="21.84" duration="261.00" routeLength="995.01" waitingTime="0.00" waitingCount="0" stopTime="0.00" timeLoss="216.08" rerouteNo="0" devices="tripinfo_southNorth.8 ssm_southNorth.8" vType="carCustom" speedFactor="0.85" vaporized=""/>
    <tripinfo id="westEastBottom0.13" depart="147.00" departLane="westJunction_0" departPos="5.10" departSpeed="0.53" departDelay="17.91" arrival="419.00" arrivalLane="junctionEast_1" arrivalPos="492.80" arrivalSpeed="21.84" duration="272.00" routeLength="994.90" waitingTime="1.00" waitingCount="1" stopTime="0.00" timeLoss="225.99" rerouteNo="0" devices="tripinfo_westEastBottom0.13 ssm_westEastBottom0.13" vType="carCustom" speedFactor="0.89" vaporized=""/>
    <tripinfo id="southEast.12" depart="184.00" departLane="southJunction_0" departPos="5.10" departSpeed="2.76" departDelay="3.23" arrival="428.00" arrivalLane="junctionEast_1" arrivalPos="492.80" arrivalSpeed="22.06" duration="244.00" routeLength="989.53" waitingTime="0.00" waitingCount="0" stopTime="0.00" timeLoss="198.05" rerouteNo="0" devices="tripinfo_southEast.12 ssm_southEast.12" vType="carCustom" speedFactor="1.05" vaporized=""/>
    <tripinfo id="southEast.13" depart="189.00" departLane="southJunction_0" departPos="5.10" departSpeed="2.31" departDelay="0.53" arrival="431.00" arrivalLane="junctionEast_0" arrivalPos="492.80" arrivalSpeed="4.88" duration="242.00" routeLength="989.53" waitingTime="0.00" waitingCount="0" stopTime="0.00" timeLoss="218.09" rerouteNo="0" devices="tripinfo_southEast.13 ssm_southEast.13" vType="carCustom" speedFactor="0.78" vaporized="teleport"/>
    <tripinfo id="westEastTop.7" depart="56.00" departLane="westJunction_1" departPos="5.10" departSpeed="4.68" departDelay="1.99" arrival="438.00" arrivalLane="junctionEast_1" arrivalPos="492.80" arrivalSpeed="21.90" duration="382.00" routeLength="994.90" waitingTime="5.00" waitingCount="1" stopTime="0.00" timeLoss="337.15" rerouteNo="0" devices="tripinfo_westEastTop.7 ssm_westEastTop.7" vType="carCustom" speedFactor="0.91" vaporized=""/>
    <tripinfo id="southNorth.9" depart="172.00" departLane="southJunction_1" departPos="5.10" departSpeed="0.63" departDelay="14.81" arrival="449.00" arrivalLane="junctionNorth_0" arrivalPos="492.80" arrivalSpeed="21.92" duration="277.00" routeLength="995.01" waitingTime="0.00" waitingCount="0" stopTime="0.00" timeLoss="231.53" rerouteNo="0" devices="tripinfo_southNorth.9 ssm_southNorth.9" vType="carCustom" speedFactor="1.13" vaporized=""/>
    <tripinfo id="westEastBottom0.11" depart="117.00" departLane="westJunction_0" departPos="5.10" departSpeed="0.94" departDelay="0.34" arrival="452.00" arrivalLane="junctionEast_1" arrivalPos="492.80" arrivalSpeed="22.14" duration="335.00" routeLength="994.90" waitingTime="1.00" waitingCount="1" stopTime="0.00" timeLoss="289.83" rerouteNo="0" devices="tripinfo_westEastBottom0.11 ssm_westEastBottom0.11" vType="carCustom" speedFactor="0.97" vaporized=""/>
    <tripinfo id="westEastBottom0.14" depart="166.00" departLane="westJunction_0" departPos="5.10" departSpeed="0.71" departDelay="33.67" arrival="458.00" arrivalLane="junctionEast_1" arrivalPos="492.80" arrivalSpeed="21.83" duration="292.00" routeLength="994.90" waitingTime="0.00" waitingCount="0" stopTime="0.00" timeLoss="247.19" rerouteNo="0" devices="tripinfo_westEastBottom0.14 ssm_westEastBottom0.14" vType="carCustom" speedFactor="0.78" vaporized=""/>
    <tripinfo id="westEastTop.8" depart="65.00" departLane="westJunction_1" departPos="5.10" departSpeed="3.87" departDelay="0.78" arrival="476.00" arrivalLane="junctionEast_1" arrivalPos="492.80" arrivalSpeed="21.95" duration="411.00" routeLength="994.90" waitingTime="4.00" waitingCount="1" stopTime="0.00" timeLoss="365.41" rerouteNo="0" devices="tripinfo_westEastTop.8 ssm_westEastTop.8" vType="carCustom" speedFactor="0.98" vaporized=""/>
    <tripinfo id="southNorth.10" depart="190.00" departLane="southJunction_1" departPos="5.10" departSpeed="0.58" departDelay="7.27" arrival="478.00" arrivalLane="junctionNorth_0" arrivalPos="492.80" arrivalSpeed="22.02" duration="288.00" routeLength="995.01" waitingTime="0.00" waitingCount="0" stopTime="0.00" timeLoss="242.47" rerouteNo="0" devices="tripinfo_southNorth.10 ssm_southNorth.10" vType="carCustom" speedFactor="1.13" vaporized=""/>
    <tripinfo id="southEast.14" depart="198.00" departLane="southJunction_0" departPos="5.10" departSpeed="1.50" departDelay="0.85" arrival="483.00" arrivalLane="junctionEast_1" arrivalPos="492.80" arrivalSpeed="21.90" duration="285.00" routeLength="989.53" waitingTime="0.00" waitingCount="0" stopTime="0.00" timeLoss="239.11" rerouteNo="0" devices="tripinfo_southEast.14 ssm_southEast.14" vType="carCustom" speedFactor="1.01" vaporized=""/>
    <tripinfo id="westEastBottom0.15" depart="184.00" departLane="westJunction_0" departPos="5.10" departSpeed="0.49" departDelay="41.56" arrival="493.00" arrivalLane="junctionEast_1" arrivalPos="492.80" arrivalSpeed="22.02" duration="309.00" routeLength="994.90" waitingTime="4.00" waitingCount="1" stopTime="0.00" timeLoss="263.15" rerouteNo="0" devices="tripinfo_westEastBottom0.15 ssm_westEastBottom0.15" vType="carCustom" speedFactor="0.96" vaporized=""/>
    <tripinfo id="westEastTop.10" depart="80.00" departLane="westJunction_1" departPos="5.10" departSpeed="2.52" departDelay="4.07" arrival="502.00" arrivalLane="junctionEast_1" arrivalPos="492.80" arrivalSpeed="21.98" duration="422.00" routeLength="994.90" waitingTime="0.00" waitingCount="0" stopTime="0.00" timeLoss="377.02" rerouteNo="0" devices="tripinfo_westEastTop.10 ssm_westEastTop.10" vType="carCustom" speedFactor="0.98" vaporized=""/>
    <tripinfo id="southNorth.11" depart="208.00" departLane="southJunction_1" departPos="5.10" departSpeed="0.57" departDelay="3.98" arrival="509.00" arrivalLane="junctionNorth_0" arrivalPos="492.80" arrivalSpeed="22.06" duration="301.00" routeLength="995.01" waitingTime="0.00" waitingCount="0" stopTime="0.00" timeLoss="255.28" rerouteNo="0" devices="tripinfo_southNorth.11 ssm_southNorth.11" vType="carCustom" speedFactor="0.91" vaporized=""/>
    <tripinfo id="westEastTop.9" depart="76.00" departLane="westJunction_1" departPos="5.10" departSpeed="2.88" departDelay="0.97" arrival="516.00" arrivalLane="junctionEast_1" arrivalPos="492.80" arrivalSpeed="21.93" duration="440.00" routeLength="994.90" waitingTime="0.00" waitingCount="0" stopTime="0.00" timeLoss="395.03" rerouteNo="0" devices="tripinfo_westEastTop.9 ssm_westEastTop.9" vType="carCustom" speedFactor="0.97" vaporized=""/>
    <tripinfo id="southEast.15" depart="209.00" departLane="southJunction_0" departPos="5.10" departSpeed="0.74" departDelay="0.17" arrival="520.00" arrivalLane="junctionEast_1" arrivalPos="492.80" arrivalSpeed="21.82" duration="311.00" routeLength="989.53" waitingTime="0.00" waitingCount="0" stopTime="0.00" timeLoss="264.50" rerouteNo="0" devices="tripinfo_southEast.15 ssm_southEast.15" vType="carCustom" speedFactor="1.05" vaporized=""/>
    <tripinfo id="westEastTop.11" depart="88.00" departLane="westJunction_1" departPos="5.10" departSpeed="1.80" departDelay="0.78" arrival="539.00" arrivalLane="junctionEast_1" arrivalPos="492.80" arrivalSpeed="21.89" duration="451.00" routeLength="994.90" waitingTime="5.00" waitingCount="1" stopTime="0.00" timeLoss="405.73" rerouteNo="0" devices="tripinfo_westEastTop.11 ssm_westEastTop.11" vType="carCustom" speedFactor="0.88" vaporized=""/>
    <tripinfo id="southNorth.12" depart="228.00" departLane="southJunction_1" departPos="5.10" departSpeed="0.69" departDelay="19.54" arrival="541.00" arrivalLane="junctionNorth_0" arrivalPos="492.80" arrivalSpeed="22.04" duration="313.00" routeLength="995.01" waitingTime="1.00" waitingCount="1" stopTime="0.00" timeLoss="267.67" rerouteNo="0" devices="tripinfo_southNorth.12 ssm_southNorth.12" vType="carCustom" speedFactor="1.00" vaporized=""/>
    <tripinfo id="southEast.16" depart="225.00" departLane="southJunction_0" departPos="5.10" departSpeed="0.71" departDelay="0.16" arrival="544.00" arrivalLane="junctionEast_1" arrivalPos="492.80" arrivalSpeed="21.54" duration="319.00" routeLength="989.53" waitingTime="0.00" waitingCount="0" stopTime="0.00" timeLoss="273.36" rerouteNo="0" devices="tripinfo_southEast.16 ssm_southEast.16" vType="carCustom" speedFactor="1.05" vaporized=""/>
    <tripinfo id="westEastBottom0.17" depart="223.00" departLane="westJunction_0" departPos="5.10" departSpeed="0.63" departDelay="63.59" arrival="551.00" arrivalLane="junctionEast_1" arrivalPos="492.80" arrivalSpeed="21.90" duration="328.00" routeLength="994.90" waitingTime="0.00" waitingCount="0" stopTime="0.00" timeLoss="282.62" rerouteNo="0" devices="tripinfo_westEastBottom0.17 ssm_westEastBottom0.17" vType="carCustom" speedFactor="0.85" vaporized=""/>
    <tripinfo id="westEastTop.12" depart="94.00" departLane="westJunction_1" departPos="5.10" departSpeed="1.26" departDelay="5.67" arrival="567.00" arrivalLane="junctionEast_1" arrivalPos="492.80" arrivalSpeed="21.97" duration="473.00" routeLength="994.90" waitingTime="0.00" waitingCount="0" stopTime="0.00" timeLoss="428.05" rerouteNo="0" devices="tripinfo_westEastTop.12 ssm_westEastTop.12" vType="carCustom" speedFactor="1.00" vaporized=""/>
    <tripinfo id="southNorth.13" depart="247.00" departLane="southJunction_1" departPos="5.10" departSpeed="0.39" departDelay="28.88" arrival="569.00" arrivalLane="junctionNorth_0" arrivalPos="492.80" arrivalSpeed="21.97" duration="322.00" routeLength="995.01" waitingTime="0.00" waitingCount="0" stopTime="0.00" timeLoss="276.95" rerouteNo="0" devices="tripinfo_southNorth.13 ssm_southNorth.13" vType="carCustom" speedFactor="1.02" vaporized=""/>
    <tripinfo id="southEast.17" depart="244.00" departLane="southJunction_0" departPos="5.10" departSpeed="0.49" departDelay="10.20" arrival="574.00" arrivalLane="junctionEast_1" arrivalPos="492.80" arrivalSpeed="21.84" duration="330.00" routeLength="989.53" waitingTime="0.00" waitingCount="0" stopTime="0.00" timeLoss="284.72" rerouteNo="0" devices="tripinfo_southEast.17 ssm_southEast.17" vType="carCustom" speedFactor="1.04" vaporized=""/>
    <tripinfo id="westEastTop.13" depart="105.00" departLane="westJunction_1" departPos="5.10" departSpeed="0.39" departDelay="15.90" arrival="585.00" arrivalLane="junctionEast_1" arrivalPos="492.80" arrivalSpeed="22.12" duration="480.00" routeLength="994.90" waitingTime="2.00" waitingCount="1" stopTime="0.00" timeLoss="434.34" rerouteNo="0" devices="tripinfo_westEastTop.13 ssm_westEastTop.13" vType="carCustom" speedFactor="1.13" vaporized=""/>