<?xml version="1.0" encoding="UTF-8"?>

<!-- generated on 2025-04-29 03:12:43 by Eclipse SUMO sumo Version 1.20.0
<configuration xmlns:xsi="http://www.w3.org/2001/XMLSchema-instance" xsi:noNamespaceSchemaLocation="http://sumo.dlr.de/xsd/sumoConfiguration.xsd">

    <input>
        <net-file value="nets/2lane_unprotected_right/2lane_unprotected_right.net.xml"/>
        <route-files value="nets/2lane_unprotected_right/2lane_unprotected_right.rou.xml"/>
    </input>

    <output>
        <tripinfo-output value="traces/transs50f0.5_s50_f1_random/0008_tripinfo.xml"/>
        <collision-output value="traces/transs50f0.5_s50_f1_random/0008_collisions.xml"/>
        <statistic-output value="traces/transs50f0.5_s50_f1_random/0008_statistics.xml"/>
    </output>

    <processing>
        <collision.action value="teleport"/>
        <collision.check-junctions value="true"/>
        <time-to-teleport value="-1"/>
        <waiting-time-memory value="1000"/>
        <max-depart-delay value="-1"/>
        <default.speeddev value="0.1"/>
    </processing>

    <report>
        <no-warnings value="true"/>
    </report>

    <ssm_device>
        <device.ssm.probability value="1.0"/>
        <device.ssm.measures value="BR"/>
        <device.ssm.file value="/Users/finn/Code/CausalKnowledgeTransfer-4-SafeRL/traces/transs50f0.5_s50_f1_random/0008_ssm.xml"/>
    </ssm_device>

    <traci_server>
        <remote-port value="62483"/>
    </traci_server>

    <random_number>
        <random value="true"/>
    </random_number>

</configuration>
-->

<tripinfos xmlns:xsi="http://www.w3.org/2001/XMLSchema-instance" xsi:noNamespaceSchemaLocation="http://sumo.dlr.de/xsd/tripinfo_file.xsd">
    <tripinfo id="southNorth.0" depart="1.00" departLane="southJunction_1" departPos="5.10" departSpeed="22.22" departDelay="0.41" arrival="48.00" arrivalLane="junctionNorth_0" arrivalPos="492.80" arrivalSpeed="22.03" duration="47.00" routeLength="995.01" waitingTime="0.00" waitingCount="0" stopTime="0.00" timeLoss="1.54" rerouteNo="0" devices="tripinfo_southNorth.0 ssm_southNorth.0" vType="carCustom" speedFactor="1.00" vaporized=""/>
    <tripinfo id="westEastBottom0.0" depart="3.00" departLane="westJunction_0" departPos="5.10" departSpeed="22.22" departDelay="0.30" arrival="51.00" arrivalLane="junctionEast_0" arrivalPos="492.80" arrivalSpeed="21.61" duration="48.00" routeLength="994.90" waitingTime="0.00" waitingCount="0" stopTime="0.00" timeLoss="2.63" rerouteNo="0" devices="tripinfo_westEastBottom0.0 ssm_westEastBottom0.0" vType="carCustom" speedFactor="0.95" vaporized=""/>
    <tripinfo id="westEastTop.0" depart="5.00" departLane="westJunction_1" departPos="5.10" departSpeed="22.22" departDelay="0.59" arrival="52.00" arrivalLane="junctionEast_1" arrivalPos="492.80" arrivalSpeed="21.61" duration="47.00" routeLength="994.90" waitingTime="0.00" waitingCount="0" stopTime="0.00" timeLoss="1.71" rerouteNo="0" devices="tripinfo_westEastTop.0 ssm_westEastTop.0" vType="carCustom" speedFactor="1.23" vaporized=""/>
    <tripinfo id="southNorth.1" depart="8.00" departLane="southJunction_1" departPos="5.10" departSpeed="21.79" departDelay="0.43" arrival="56.00" arrivalLane="junctionNorth_0" arrivalPos="492.80" arrivalSpeed="22.12" duration="48.00" routeLength="995.01" waitingTime="0.00" waitingCount="0" stopTime="0.00" timeLoss="2.54" rerouteNo="0" devices="tripinfo_southNorth.1 ssm_southNorth.1" vType="carCustom" speedFactor="0.97" vaporized=""/>
    <tripinfo id="southNorth.2" depart="10.00" departLane="southJunction_1" departPos="5.10" departSpeed="20.93" departDelay="2.39" arrival="58.00" arrivalLane="junctionNorth_0" arrivalPos="492.80" arrivalSpeed="20.96" duration="48.00" routeLength="995.01" waitingTime="0.00" waitingCount="0" stopTime="0.00" timeLoss="3.14" rerouteNo="0" devices="tripinfo_southNorth.2 ssm_southNorth.2" vType="carCustom" speedFactor="0.96" vaporized=""/>
    <tripinfo id="southEast.0" depart="7.00" departLane="southJunction_0" departPos="5.10" departSpeed="22.22" departDelay="0.29" arrival="60.00" arrivalLane="junctionEast_0" arrivalPos="492.80" arrivalSpeed="22.20" duration="53.00" routeLength="989.53" waitingTime="0.00" waitingCount="0" stopTime="0.00" timeLoss="7.49" rerouteNo="0" devices="tripinfo_southEast.0 ssm_southEast.0" vType="carCustom" speedFactor="1.01" vaporized=""/>
    <tripinfo id="westEastTop.1" depart="7.00" departLane="westJunction_1" departPos="5.10" departSpeed="20.99" departDelay="1.45" arrival="65.00" arrivalLane="junctionEast_1" arrivalPos="492.80" arrivalSpeed="21.56" duration="58.00" routeLength="994.90" waitingTime="5.00" waitingCount="1" stopTime="0.00" timeLoss="11.94" rerouteNo="0" devices="tripinfo_westEastTop.1 ssm_westEastTop.1" vType="carCustom" speedFactor="0.94" vaporized=""/>
    <tripinfo id="southEast.1" depart="9.00" departLane="southJunction_0" departPos="5.10" departSpeed="20.99" departDelay="0.99" arrival="65.00" arrivalLane="junctionEast_0" arrivalPos="492.80" arrivalSpeed="21.97" duration="56.00" routeLength="989.53" waitingTime="0.00" waitingCount="0" stopTime="0.00" timeLoss="10.06" rerouteNo="0" devices="tripinfo_southEast.1 ssm_southEast.1" vType="carCustom" speedFactor="0.84" vaporized=""/>
    <tripinfo id="westEastTop.2" depart="9.00" departLane="westJunction_1" departPos="5.10" departSpeed="20.08" departDelay="0.17" arrival="67.00" arrivalLane="junctionEast_1" arrivalPos="492.80" arrivalSpeed="22.10" duration="58.00" routeLength="994.90" waitingTime="0.00" waitingCount="0" stopTime="0.00" timeLoss="12.88" rerouteNo="0" devices="tripinfo_westEastTop.2 ssm_westEastTop.2" vType="carCustom" speedFactor="1.06" vaporized=""/>
    <tripinfo id="westEastBottom0.1" depart="14.00" departLane="westJunction_0" departPos="5.10" departSpeed="20.93" departDelay="0.26" arrival="70.00" arrivalLane="junctionEast_1" arrivalPos="492.80" arrivalSpeed="21.26" duration="56.00" routeLength="994.90" waitingTime="0.00" waitingCount="0" stopTime="0.00" timeLoss="10.42" rerouteNo="0" devices="tripinfo_westEastBottom0.1 ssm_westEastBottom0.1" vType="carCustom" speedFactor="1.03" vaporized=""/>
    <tripinfo id="southEast.2" depart="17.00" departLane="southJunction_0" departPos="5.10" departSpeed="21.12" departDelay="0.92" arrival="70.00" arrivalLane="junctionEast_0" arrivalPos="492.80" arrivalSpeed="21.12" duration="53.00" routeLength="989.53" waitingTime="0.00" waitingCount="0" stopTime="0.00" timeLoss="6.85" rerouteNo="0" devices="tripinfo_southEast.2 ssm_southEast.2" vType="carCustom" speedFactor="1.01" vaporized=""/>
    <tripinfo id="westEastTop.3" depart="16.00" departLane="westJunction_1" departPos="5.10" departSpeed="19.22" departDelay="0.21" arrival="72.00" arrivalLane="junctionEast_1" arrivalPos="492.80" arrivalSpeed="21.85" duration="56.00" routeLength="994.90" waitingTime="0.00" waitingCount="0" stopTime="0.00" timeLoss="10.95" rerouteNo="0" devices="tripinfo_westEastTop.3 ssm_westEastTop.3" vType="carCustom" speedFactor="1.14" vaporized=""/>
    <tripinfo id="westEastBottom0.2" depart="22.00" departLane="westJunction_0" departPos="5.10" departSpeed="21.15" departDelay="0.25" arrival="73.00" arrivalLane="junctionEast_0" arrivalPos="492.80" arrivalSpeed="21.88" duration="51.00" routeLength="994.90" waitingTime="0.00" waitingCount="0" stopTime="0.00" timeLoss="5.78" rerouteNo="0" devices="tripinfo_westEastBottom0.2 ssm_westEastBottom0.2" vType="carCustom" speedFactor="0.94" vaporized=""/>
    <tripinfo id="southNorth.3" depart="24.00" departLane="southJunction_1" departPos="5.10" departSpeed="21.58" departDelay="0.95" arrival="74.00" arrivalLane="junctionNorth_0" arrivalPos="492.80" arrivalSpeed="21.91" duration="50.00" routeLength="995.01" waitingTime="0.00" waitingCount="0" stopTime="0.00" timeLoss="5.17" rerouteNo="0" devices="tripinfo_southNorth.3 ssm_southNorth.3" vType="carCustom" speedFactor="0.90" vaporized=""/>
    <tripinfo id="westEastTop.4" depart="18.00" departLane="westJunction_1" departPos="5.10" departSpeed="22.14" departDelay="0.56" arrival="75.00" arrivalLane="junctionEast_1" arrivalPos="492.80" arrivalSpeed="20.96" duration="57.00" routeLength="994.90" waitingTime="0.00" waitingCount="0" stopTime="0.00" timeLoss="11.48" rerouteNo="0" devices="tripinfo_westEastTop.4 ssm_westEastTop.4" vType="carCustom" speedFactor="1.07" vaporized=""/>
    <tripinfo id="southNorth.4" depart="26.00" departLane="southJunction_1" departPos="5.10" departSpeed="21.08" departDelay="1.72" arrival="77.00" arrivalLane="junctionNorth_0" arrivalPos="492.80" arrivalSpeed="21.81" duration="51.00" routeLength="995.01" waitingTime="0.00" waitingCount="0" stopTime="0.00" timeLoss="5.77" rerouteNo="0" devices="tripinfo_southNorth.4 ssm_southNorth.4" vType="carCustom" speedFactor="1.24" vaporized=""/>
    <tripinfo id="westEastTop.5" depart="22.00" departLane="westJunction_1" departPos="5.10" departSpeed="21.06" departDelay="0.15" arrival="81.00" arrivalLane="junctionEast_1" arrivalPos="492.80" arrivalSpeed="21.28" duration="59.00" routeLength="994.90" waitingTime="2.00" waitingCount="1" stopTime="0.00" timeLoss="14.19" rerouteNo="0" devices="tripinfo_westEastTop.5 ssm_westEastTop.5" vType="carCustom" speedFactor="1.02" vaporized=""/>
    <tripinfo id="westEastBottom0.3" depart="24.00" departLane="westJunction_0" departPos="5.10" departSpeed="21.41" departDelay="0.04" arrival="82.00" arrivalLane="junctionEast_0" arrivalPos="492.80" arrivalSpeed="21.75" duration="58.00" routeLength="994.90" waitingTime="0.00" waitingCount="0" stopTime="0.00" timeLoss="12.79" rerouteNo="0" devices="tripinfo_westEastBottom0.3 ssm_westEastBottom0.3" vType="carCustom" speedFactor="1.18" vaporized=""/>
    <tripinfo id="westEastTop.6" depart="24.00" departLane="westJunction_1" departPos="5.10" departSpeed="21.41" departDelay="0.69" arrival="84.00" arrivalLane="junctionEast_1" arrivalPos="492.80" arrivalSpeed="21.75" duration="60.00" routeLength="994.90" waitingTime="0.00" waitingCount="0" stopTime="0.00" timeLoss="14.75" rerouteNo="0" devices="tripinfo_westEastTop.6 ssm_westEastTop.6" vType="carCustom" speedFactor="1.08" vaporized=""/>
    <tripinfo id="westEastBottom0.4" depart="27.00" departLane="westJunction_0" departPos="5.10" departSpeed="20.98" departDelay="0.90" arrival="85.00" arrivalLane="junctionEast_0" arrivalPos="492.80" arrivalSpeed="21.39" duration="58.00" routeLength="994.90" waitingTime="0.00" waitingCount="0" stopTime="0.00" timeLoss="12.39" rerouteNo="0" devices="tripinfo_westEastBottom0.4 ssm_westEastBottom0.4" vType="carCustom" speedFactor="0.93" vaporized=""/>
    <tripinfo id="southNorth.5" depart="32.00" departLane="southJunction_1" departPos="5.10" departSpeed="21.15" departDelay="0.85" arrival="86.00" arrivalLane="junctionNorth_0" arrivalPos="492.80" arrivalSpeed="22.09" duration="54.00" routeLength="995.01" waitingTime="0.00" waitingCount="0" stopTime="0.00" timeLoss="8.51" rerouteNo="0" devices="tripinfo_southNorth.5 ssm_southNorth.5" vType="carCustom" speedFactor="0.89" vaporized=""/>
    <tripinfo id="southEast.3" depart="30.00" departLane="southJunction_0" departPos="5.10" departSpeed="21.86" departDelay="0.73" arrival="87.00" arrivalLane="junctionEast_0" arrivalPos="492.80" arrivalSpeed="21.24" duration="57.00" routeLength="989.53" waitingTime="2.00" waitingCount="1" stopTime="0.00" timeLoss="11.57" rerouteNo="0" devices="tripinfo_southEast.3 ssm_southEast.3" vType="carCustom" speedFactor="0.92" vaporized=""/>
    <tripinfo id="southNorth.6" depart="34.00" departLane="southJunction_1" departPos="5.10" departSpeed="21.49" departDelay="0.13" arrival="88.00" arrivalLane="junctionNorth_0" arrivalPos="492.80" arrivalSpeed="21.09" duration="54.00" routeLength="995.01" waitingTime="0.00" waitingCount="0" stopTime="0.00" timeLoss="9.14" rerouteNo="0" devices="tripinfo_southNorth.6 ssm_southNorth.6" vType="carCustom" speedFactor="1.02" vaporized=""/>
    <tripinfo id="southEast.4" depart="32.00" departLane="southJunction_0" departPos="5.10" departSpeed="22.07" departDelay="1.78" arrival="90.00" arrivalLane="junctionEast_0" arrivalPos="492.80" arrivalSpeed="21.31" duration="58.00" routeLength="989.53" waitingTime="0.00" waitingCount="0" stopTime="0.00" timeLoss="11.92" rerouteNo="0" devices="tripinfo_southEast.4 ssm_southEast.4" vType="carCustom" speedFactor="0.98" vaporized=""/>
    <tripinfo id="southNorth.7" depart="36.00" departLane="southJunction_1" departPos="5.10" departSpeed="20.45" departDelay="1.46" arrival="91.00" arrivalLane="junctionNorth_0" arrivalPos="492.80" arrivalSpeed="21.44" duration="55.00" routeLength="995.01" waitingTime="0.00" waitingCount="0" stopTime="0.00" timeLoss="9.75" rerouteNo="0" devices="tripinfo_southNorth.7 ssm_southNorth.7" vType="carCustom" speedFactor="1.05" vaporized=""/>
    <tripinfo id="southEast.5" depart="34.00" departLane="southJunction_0" departPos="5.10" departSpeed="20.77" departDelay="1.84" arrival="93.00" arrivalLane="junctionEast_0" arrivalPos="492.80" arrivalSpeed="22.09" duration="59.00" routeLength="989.53" waitingTime="0.00" waitingCount="0" stopTime="0.00" timeLoss="12.60" rerouteNo="0" devices="tripinfo_southEast.5 ssm_southEast.5" vType="carCustom" speedFactor="0.97" vaporized=""/>
    <tripinfo id="westEastBottom0.11" depart="68.00" departLane="westJunction_0" departPos="5.10" departSpeed="21.76" departDelay="0.86" arrival="93.00" arrivalLane="junctionEast_0" arrivalPos="492.80" arrivalSpeed="17.37" duration="25.00" routeLength="994.90" waitingTime="0.00" waitingCount="0" stopTime="0.00" timeLoss="2.33" rerouteNo="0" devices="tripinfo_westEastBottom0.11 ssm_westEastBottom0.11" vType="carCustom" speedFactor="1.07" vaporized="teleport"/>
    <tripinfo id="westEastTop.7" depart="32.00" departLane="westJunction_1" departPos="5.10" departSpeed="20.67" departDelay="0.91" arrival="96.00" arrivalLane="junctionEast_0" arrivalPos="492.80" arrivalSpeed="21.22" duration="64.00" routeLength="994.90" waitingTime="5.00" waitingCount="1" stopTime="0.00" timeLoss="18.66" rerouteNo="0" devices="tripinfo_westEastTop.7 ssm_westEastTop.7" vType="carCustom" speedFactor="0.82" vaporized=""/>
    <tripinfo id="westEastBottom0.5" depart="33.00" departLane="westJunction_0" departPos="5.10" departSpeed="20.23" departDelay="0.91" arrival="97.00" arrivalLane="junctionEast_0" arrivalPos="492.80" arrivalSpeed="18.62" duration="64.00" routeLength="994.90" waitingTime="6.00" waitingCount="1" stopTime="0.00" timeLoss="19.21" rerouteNo="0" devices="tripinfo_westEastBottom0.5 ssm_westEastBottom0.5" vType="carCustom" speedFactor="1.04" vaporized=""/>
    <tripinfo id="westEastTop.8" depart="34.00" departLane="westJunction_1" departPos="5.10" departSpeed="21.13" departDelay="2.35" arrival="98.00" arrivalLane="junctionEast_1" arrivalPos="492.80" arrivalSpeed="21.35" duration="64.00" routeLength="994.90" waitingTime="4.00" waitingCount="1" stopTime="0.00" timeLoss="19.21" rerouteNo="0" devices="tripinfo_westEastTop.8 ssm_westEastTop.8" vType="carCustom" speedFactor="1.11" vaporized=""/>
    <tripinfo id="westEastBottom0.6" depart="35.00" departLane="westJunction_0" departPos="5.10" departSpeed="21.13" departDelay="2.58" arrival="100.00" arrivalLane="junctionEast_0" arrivalPos="492.80" arrivalSpeed="21.97" duration="65.00" routeLength="994.90" waitingTime="5.00" waitingCount="1" stopTime="0.00" timeLoss="19.67" rerouteNo="0" devices="tripinfo_westEastBottom0.6 ssm_westEastBottom0.6" vType="carCustom" speedFactor="0.94" vaporized=""/>
    <tripinfo id="westEastBottom0.7" depart="38.00" departLane="westJunction_0" departPos="5.10" departSpeed="19.68" departDelay="0.90" arrival="101.00" arrivalLane="junctionEast_1" arrivalPos="492.80" arrivalSpeed="21.55" duration="63.00" routeLength="994.90" waitingTime="1.00" waitingCount="1" stopTime="0.00" timeLoss="17.74" rerouteNo="0" devices="tripinfo_westEastBottom0.7 ssm_westEastBottom0.7" vType="carCustom" speedFactor="0.90" vaporized=""/>
    <tripinfo id="westEastBottom0.8" depart="48.00" departLane="westJunction_0" departPos="5.10" departSpeed="20.70" departDelay="0.89" arrival="104.00" arrivalLane="junctionEast_0" arrivalPos="492.80" arrivalSpeed="21.44" duration="56.00" routeLength="994.90" waitingTime="0.00" waitingCount="0" stopTime="0.00" timeLoss="10.27" rerouteNo="0" devices="tripinfo_westEastBottom0.8 ssm_westEastBottom0.8" vType="carCustom" speedFactor="0.91" vaporized=""/>
    <tripinfo id="westEastTop.9" depart="50.00" departLane="westJunction_1" departPos="5.10" departSpeed="21.52" departDelay="0.25" arrival="106.00" arrivalLane="junctionEast_0" arrivalPos="492.80" arrivalSpeed="22.11" duration="56.00" routeLength="994.90" waitingTime="0.00" waitingCount="0" stopTime="0.00" timeLoss="10.67" rerouteNo="0" devices="tripinfo_westEastTop.9 ssm_westEastTop.9" vType="carCustom" speedFactor="1.06" vaporized=""/>
    <tripinfo id="westEastTop.10" depart="55.00" departLane="westJunction_1" departPos="5.10" departSpeed="22.02" departDelay="0.33" arrival="108.00" arrivalLane="junctionEast_1" arrivalPos="492.80" arrivalSpeed="21.45" duration="53.00" routeLength="994.90" waitingTime="0.00" waitingCount="0" stopTime="0.00" timeLoss="7.85" rerouteNo="0" devices="tripinfo_westEastTop.10 ssm_westEastTop.10" vType="carCustom" speedFactor="0.88" vaporized=""/>
    <tripinfo id="westEastBottom0.9" depart="56.00" departLane="westJunction_0" departPos="5.10" departSpeed="21.54" departDelay="0.71" arrival="108.00" arrivalLane="junctionEast_0" arrivalPos="492.80" arrivalSpeed="21.33" duration="52.00" routeLength="994.90" waitingTime="0.00" waitingCount="0" stopTime="0.00" timeLoss="6.90" rerouteNo="0" devices="tripinfo_westEastBottom0.9 ssm_westEastBottom0.9" vType="carCustom" speedFactor="1.02" vaporized=""/>
    <tripinfo id="westEastTop.11" depart="57.00" departLane="westJunction_1" departPos="5.10" departSpeed="21.24" departDelay="1.45" arrival="111.00" arrivalLane="junctionEast_1" arrivalPos="492.80" arrivalSpeed="21.35" duration="54.00" routeLength="994.90" waitingTime="0.00" waitingCount="0" stopTime="0.00" timeLoss="8.31" rerouteNo="0" devices="tripinfo_westEastTop.11 ssm_westEastTop.11" vType="carCustom" speedFactor="1.27" vaporized=""/>
    <tripinfo id="westEastBottom0.10" depart="59.00" departLane="westJunction_0" departPos="5.10" departSpeed="22.03" departDelay="0.12" arrival="111.00" arrivalLane="junctionEast_0" arrivalPos="492.80" arrivalSpeed="21.32" duration="52.00" routeLength="994.90" waitingTime="0.00" waitingCount="0" stopTime="0.00" timeLoss="6.67" rerouteNo="0" devices="tripinfo_westEastBottom0.10 ssm_westEastBottom0.10" vType="carCustom" speedFactor="1.08" vaporized=""/>
    <tripinfo id="southNorth.8" depart="63.00" departLane="southJunction_1" departPos="5.10" departSpeed="8.51" departDelay="0.91" arrival="111.00" arrivalLane="junctionNorth_0" arrivalPos="492.80" arrivalSpeed="22.13" duration="48.00" routeLength="995.01" waitingTime="0.00" waitingCount="0" stopTime="0.00" timeLoss="3.14" rerouteNo="0" devices="tripinfo_southNorth.8 ssm_southNorth.8" vType="carCustom" speedFactor="1.00" vaporized=""/>
    <tripinfo id="southEast.6" depart="60.00" departLane="southJunction_0" departPos="5.10" departSpeed="4.78" departDelay="0.66" arrival="114.00" arrivalLane="junctionEast_0" arrivalPos="492.80" arrivalSpeed="21.36" duration="54.00" routeLength="989.53" waitingTime="0.00" waitingCount="0" stopTime="0.00" timeLoss="8.56" rerouteNo="0" devices="tripinfo_southEast.6 ssm_southEast.6" vType="carCustom" speedFactor="1.25" vaporized=""/>
    <tripinfo id="westEastTop.12" depart="62.00" departLane="westJunction_1" departPos="5.10" departSpeed="20.06" departDelay="0.42" arrival="119.00" arrivalLane="junctionEast_1" arrivalPos="492.80" arrivalSpeed="21.93" duration="57.00" routeLength="994.90" waitingTime="0.00" waitingCount="0" stopTime="0.00" timeLoss="11.76" rerouteNo="0" devices="tripinfo_westEastTop.12 ssm_westEastTop.12" vType="carCustom" speedFactor="0.97" vaporized=""/>
    <tripinfo id="southEast.7" depart="65.00" departLane="southJunction_0" departPos="5.10" departSpeed="14.20" departDelay="0.76" arrival="119.00" arrivalLane="junctionEast_0" arrivalPos="492.80" arrivalSpeed="21.21" duration="54.00" routeLength="989.53" waitingTime="0.00" waitingCount="0" stopTime="0.00" timeLoss="8.34" rerouteNo="0" devices="tripinfo_southEast.7 ssm_southEast.7" vType="carCustom" speedFactor="1.06" vaporized=""/>
    <tripinfo id="westEastTop.13" depart="66.00" departLane="westJunction_1" departPos="5.10" departSpeed="21.35" departDelay="0.72" arrival="122.00" arrivalLane="junctionEast_0" arrivalPos="492.80" arrivalSpeed="21.46" duration="56.00" routeLength="994.90" waitingTime="0.00" waitingCount="0" stopTime="0.00" timeLoss="10.44" rerouteNo="0" devices="tripinfo_westEastTop.13 ssm_westEastTop.13" vType="carCustom" speedFactor="0.77" vaporized=""/>
    <tripinfo id="southEast.8" depart="67.00" departLane="southJunction_0" departPos="5.10" departSpeed="17.68" departDelay="2.38" arrival="124.00" arrivalLane="junctionEast_0" arrivalPos="492.80" arrivalSpeed="21.30" duration="57.00" routeLength="989.53" waitingTime="0.00" waitingCount="0" stopTime="0.00" timeLoss="10.35" rerouteNo="0" devices="tripinfo_southEast.8 ssm_southEast.8" vType="carCustom" speedFactor="0.87" vaporized=""/>
    <tripinfo id="westEastTop.14" depart="68.00" departLane="westJunction_1" departPos="5.10" departSpeed="21.20" departDelay="1.58" arrival="130.00" arrivalLane="junctionEast_0" arrivalPos="492.80" arrivalSpeed="22.01" duration="62.00" routeLength="994.90" waitingTime="3.00" waitingCount="1" stopTime="0.00" timeLoss="16.62" rerouteNo="0" devices="tripinfo_westEastTop.14 ssm_westEastTop.14" vType="carCustom" speedFactor="0.97" vaporized=""/>
    <tripinfo id="westEastTop.15" depart="77.00" departLane="westJunction_1" departPos="5.10" departSpeed="21.41" departDelay="0.89" arrival="132.00" arrivalLane="junctionEast_0" arrivalPos="492.80" arrivalSpeed="21.33" duration="55.00" routeLength="994.90" waitingTime="0.00" waitingCount="0" stopTime="0.00" timeLoss="10.21" rerouteNo="0" devices="tripinfo_westEastTop.15 ssm_westEastTop.15" vType="carCustom" speedFactor="0.91" vaporized=""/>
    <tripinfo id="southNorth.9" depart="84.00" departLane="southJunction_1" departPos="5.10" departSpeed="21.25" departDelay="0.60" arrival="132.00" arrivalLane="junctionNorth_0" arrivalPos="492.80" arrivalSpeed="21.44" duration="48.00" routeLength="995.01" waitingTime="0.00" waitingCount="0" stopTime="0.00" timeLoss="2.40" rerouteNo="0" devices="tripinfo_southNorth.9 ssm_southNorth.9" vType="carCustom" speedFactor="0.96" vaporized=""/>
    <tripinfo id="westEastBottom0.13" depart="84.00" departLane="westJunction_0" departPos="5.10" departSpeed="21.09" departDelay="0.87" arrival="139.00" arrivalLane="junctionEast_0" arrivalPos="492.80" arrivalSpeed="21.66" duration="55.00" routeLength="994.90" waitingTime="0.00" waitingCount="0" stopTime="0.00" timeLoss="9.89" rerouteNo="0" devices="tripinfo_westEastBottom0.13 ssm_westEastBottom0.13" vType="carCustom" speedFactor="0.87" vaporized=""/>
    <tripinfo id="westEastBottom0.12" depart="81.00" departLane="westJunction_0" departPos="5.10" departSpeed="21.08" departDelay="0.60" arrival="141.00" arrivalLane="junctionEast_1" arrivalPos="492.80" arrivalSpeed="22.01" duration="60.00" routeLength="994.90" waitingTime="1.00" waitingCount="1" stopTime="0.00" timeLoss="14.52" rerouteNo="0" devices="tripinfo_westEastBottom0.12 ssm_westEastBottom0.12" vType="carCustom" speedFactor="0.95" vaporized=""/>
    <tripinfo id="westEastTop.16" depart="83.00" departLane="westJunction_1" departPos="5.10" departSpeed="21.21" departDelay="0.66" arrival="143.00" arrivalLane="junctionEast_0" arrivalPos="492.80" arrivalSpeed="21.48" duration="60.00" routeLength="994.90" waitingTime="0.00" waitingCount="0" stopTime="0.00" timeLoss="15.03" rerouteNo="0" devices="tripinfo_westEastTop.16 ssm_westEastTop.16" vType="carCustom" speedFactor="1.06" vaporized=""/>
    <tripinfo id="westEastTop.17" depart="87.00" departLane="westJunction_1" departPos="5.10" departSpeed="22.03" departDelay="0.75" arrival="146.00" arrivalLane="junctionEast_0" arrivalPos="492.80" arrivalSpeed="21.62" duration="59.00" routeLength="994.90" waitingTime="0.00" waitingCount="0" stopTime="0.00" timeLoss="13.58" rerouteNo="0" devices="tripinfo_westEastTop.17 ssm_westEastTop.17" vType="carCustom" speedFactor="1.06" vaporized=""/>
    <tripinfo id="westEastTop.18" depart="91.00" departLane="westJunction_1" departPos="5.10" departSpeed="21.98" departDelay="0.28" arrival="148.00" arrivalLane="junctionEast_0" arrivalPos="492.80" arrivalSpeed="21.27" duration="57.00" routeLength="994.90" waitingTime="0.00" waitingCount="0" stopTime="0.00" timeLoss="12.06" rerouteNo="0" devices="tripinfo_westEastTop.18 ssm_westEastTop.18" vType="carCustom" speedFactor="1.19" vaporized=""/>
    <tripinfo id="westEastTop.19" depart="98.00" departLane="westJunction_1" departPos="5.10" departSpeed="22.14" departDelay="0.80" arrival="150.00" arrivalLane="junctionEast_1" arrivalPos="492.80" arrivalSpeed="21.67" duration="52.00" routeLength="994.90" waitingTime="0.00" waitingCount="0" stopTime="0.00" timeLoss="6.61" rerouteNo="0" devices="tripinfo_westEastTop.19 ssm_westEastTop.19" vType="carCustom" speedFactor="1.13" vaporized=""/>
    <tripinfo id="westEastTop.20" depart="101.00" departLane="westJunction_1" departPos="5.10" departSpeed="21.04" departDelay="0.03" arrival="152.00" arrivalLane="junctionEast_0" arrivalPos="492.80" arrivalSpeed="22.05" duration="51.00" routeLength="994.90" waitingTime="0.00" waitingCount="0" stopTime="0.00" timeLoss="6.02" rerouteNo="0" devices="tripinfo_westEastTop.20 ssm_westEastTop.20" vType="carCustom" speedFactor="0.96" vaporized=""/>
    <tripinfo id="southNorth.10" depart="99.00" departLane="southJunction_1" departPos="5.10" departSpeed="21.60" departDelay="0.03" arrival="155.00" arrivalLane="junctionNorth_0" arrivalPos="492.80" arrivalSpeed="22.15" duration="56.00" routeLength="995.01" waitingTime="0.00" waitingCount="0" stopTime="0.00" timeLoss="10.31" rerouteNo="0" devices="tripinfo_southNorth.10 ssm_southNorth.10" vType="carCustom" speedFactor="1.12" vaporized=""/>
    <tripinfo id="southNorth.11" depart="101.00" departLane="southJunction_1" departPos="5.10" departSpeed="21.45" departDelay="0.68" arrival="157.00" arrivalLane="junctionNorth_0" arrivalPos="492.80" arrivalSpeed="21.87" duration="56.00" routeLength="995.01" waitingTime="0.00" waitingCount="0" stopTime="0.00" timeLoss="10.90" rerouteNo="0" devices="tripinfo_southNorth.11 ssm_southNorth.11" vType="carCustom" speedFactor="1.09" vaporized=""/>
    <tripinfo id="westEastTop.21" depart="105.00" departLane="westJunction_1" departPos="5.10" departSpeed="21.67" departDelay="0.43" arrival="159.00" arrivalLane="junctionEast_0" arrivalPos="492.80" arrivalSpeed="21.35" duration="54.00" routeLength="994.90" waitingTime="0.00" waitingCount="0" stopTime="0.00" timeLoss="8.62" rerouteNo="0" devices="tripinfo_westEastTop.21 ssm_westEastTop.21" vType="carCustom" speedFactor="0.92" vaporized=""/>
    <tripinfo id="westEastBottom0.14" depart="102.00" departLane="westJunction_0" departPos="5.10" departSpeed="18.81" departDelay="0.45" arrival="161.00" arrivalLane="junctionEast_0" arrivalPos="492.80" arrivalSpeed="21.33" duration="59.00" routeLength="994.90" waitingTime="5.00" waitingCount="1" stopTime="0.00" timeLoss="13.92" rerouteNo="0" devices="tripinfo_westEastBottom0.14 ssm_westEastBottom0.14" vType="carCustom" speedFactor="1.12" vaporized=""/>
    <tripinfo id="westEastTop.22" depart="107.00" departLane="westJunction_1" departPos="5.10" departSpeed="21.00" departDelay="2.34" arrival="161.00" arrivalLane="junctionEast_1" arrivalPos="492.80" arrivalSpeed="21.13" duration="54.00" routeLength="994.90" waitingTime="0.00" waitingCount="0" stopTime="0.00" timeLoss="8.66" rerouteNo="0" devices="tripinfo_westEastTop.22 ssm_westEastTop.22" vType="carCustom" speedFactor="0.95" vaporized=""/>
    <tripinfo id="southNorth.12" depart="108.00" departLane="southJunction_1" departPos="5.10" departSpeed="20.62" departDelay="0.78" arrival="165.00" arrivalLane="junctionNorth_0" arrivalPos="492.80" arrivalSpeed="21.31" duration="57.00" routeLength="995.01" waitingTime="1.00" waitingCount="1" stopTime="0.00" timeLoss="12.08" rerouteNo="0" devices="tripinfo_southNorth.12 ssm_southNorth.12" vType="carCustom" speedFactor="0.99" vaporized=""/>
    <tripinfo id="southEast.9" depart="112.00" departLane="southJunction_0" departPos="5.10" departSpeed="22.22" departDelay="0.10" arrival="166.00" arrivalLane="junctionEast_0" arrivalPos="492.80" arrivalSpeed="21.54" duration="54.00" routeLength="989.53" waitingTime="0.00" waitingCount="0" stopTime="0.00" timeLoss="8.32" rerouteNo="0" devices="tripinfo_southEast.9 ssm_southEast.9" vType="carCustom" speedFactor="1.01" vaporized=""/>
    <tripinfo id="southNorth.13" depart="110.00" departLane="southJunction_1" departPos="5.10" departSpeed="21.86" departDelay="2.36" arrival="168.00" arrivalLane="junctionNorth_0" arrivalPos="492.80" arrivalSpeed="22.16" duration="58.00" routeLength="995.01" waitingTime="0.00" waitingCount="0" stopTime="0.00" timeLoss="12.66" rerouteNo="0" devices="tripinfo_southNorth.13 ssm_southNorth.13" vType="carCustom" speedFactor="0.79" vaporized=""/>
    <tripinfo id="southEast.10" depart="114.00" departLane="southJunction_0" departPos="5.10" departSpeed="21.52" departDelay="0.14" arrival="169.00" arrivalLane="junctionEast_0" arrivalPos="492.80" arrivalSpeed="20.93" duration="55.00" routeLength="989.53" waitingTime="0.00" waitingCount="0" stopTime="0.00" timeLoss="9.02" rerouteNo="0" devices="tripinfo_southEast.10 ssm_southEast.10" vType="carCustom" speedFactor="1.17" vaporized=""/>