<?xml version="1.0" encoding="UTF-8"?>

<!-- generated on 2025-04-29 03:44:45 by Eclipse SUMO sumo Version 1.20.0
<configuration xmlns:xsi="http://www.w3.org/2001/XMLSchema-instance" xsi:noNamespaceSchemaLocation="http://sumo.dlr.de/xsd/sumoConfiguration.xsd">

    <input>
        <net-file value="nets/2lane_unprotected_right/2lane_unprotected_right.net.xml"/>
        <route-files value="nets/2lane_unprotected_right/2lane_unprotected_right.rou.xml"/>
    </input>

    <output>
        <tripinfo-output value="traces/transs50f0.5_s50_f1_random/0011_tripinfo.xml"/>
        <collision-output value="traces/transs50f0.5_s50_f1_random/0011_collisions.xml"/>
        <statistic-output value="traces/transs50f0.5_s50_f1_random/0011_statistics.xml"/>
    </output>

    <processing>
        <collision.action value="teleport"/>
        <collision.check-junctions value="true"/>
        <time-to-teleport value="-1"/>
        <waiting-time-memory value="1000"/>
        <max-depart-delay value="-1"/>
        <default.speeddev value="0.1"/>
    </processing>

    <report>
        <no-warnings value="true"/>
    </report>

    <ssm_device>
        <device.ssm.probability value="1.0"/>
        <device.ssm.measures value="BR"/>
        <device.ssm.file value="/Users/finn/Code/CausalKnowledgeTransfer-4-SafeRL/traces/transs50f0.5_s50_f1_random/0011_ssm.xml"/>
    </ssm_device>

    <traci_server>
        <remote-port value="62519"/>
    </traci_server>

    <random_number>
        <random value="true"/>
    </random_number>

</configuration>
-->

<tripinfos xmlns:xsi="http://www.w3.org/2001/XMLSchema-instance" xsi:noNamespaceSchemaLocation="http://sumo.dlr.de/xsd/tripinfo_file.xsd">
    <tripinfo id="westEastTop.0" depart="3.00" departLane="westJunction_1" departPos="5.10" departSpeed="27.78" departDelay="0.25" arrival="40.00" arrivalLane="junctionEast_1" arrivalPos="492.80" arrivalSpeed="27.35" duration="37.00" routeLength="994.90" waitingTime="0.00" waitingCount="0" stopTime="0.00" timeLoss="0.84" rerouteNo="0" devices="tripinfo_westEastTop.0 ssm_westEastTop.0" vType="carCustom" speedFactor="1.12" vaporized=""/>
    <tripinfo id="westEastTop.1" depart="5.00" departLane="westJunction_1" departPos="5.10" departSpeed="27.06" departDelay="1.35" arrival="47.00" arrivalLane="junctionEast_1" arrivalPos="492.80" arrivalSpeed="27.73" duration="42.00" routeLength="994.90" waitingTime="0.00" waitingCount="0" stopTime="0.00" timeLoss="5.78" rerouteNo="0" devices="tripinfo_westEastTop.1 ssm_westEastTop.1" vType="carCustom" speedFactor="1.09" vaporized=""/>
    <tripinfo id="southEast.0" depart="7.00" departLane="southJunction_0" departPos="5.10" departSpeed="27.78" departDelay="0.53" arrival="50.00" arrivalLane="junctionEast_0" arrivalPos="492.80" arrivalSpeed="26.90" duration="43.00" routeLength="989.53" waitingTime="0.00" waitingCount="0" stopTime="0.00" timeLoss="6.06" rerouteNo="0" devices="tripinfo_southEast.0 ssm_southEast.0" vType="carCustom" speedFactor="0.99" vaporized=""/>
    <tripinfo id="southNorth.0" depart="6.00" departLane="southJunction_1" departPos="5.10" departSpeed="27.78" departDelay="0.06" arrival="56.00" arrivalLane="junctionNorth_0" arrivalPos="492.80" arrivalSpeed="27.19" duration="50.00" routeLength="995.01" waitingTime="1.00" waitingCount="1" stopTime="0.00" timeLoss="13.66" rerouteNo="0" devices="tripinfo_southNorth.0 ssm_southNorth.0" vType="carCustom" speedFactor="0.95" vaporized=""/>
    <tripinfo id="westEastTop.2" depart="8.00" departLane="westJunction_1" departPos="5.10" departSpeed="19.39" departDelay="0.84" arrival="58.00" arrivalLane="junctionEast_1" arrivalPos="492.80" arrivalSpeed="26.81" duration="50.00" routeLength="994.90" waitingTime="0.00" waitingCount="0" stopTime="0.00" timeLoss="13.56" rerouteNo="0" devices="tripinfo_westEastTop.2 ssm_westEastTop.2" vType="carCustom" speedFactor="0.94" vaporized=""/>
    <tripinfo id="westEastBottom0.0" depart="11.00" departLane="westJunction_0" departPos="5.10" departSpeed="27.78" departDelay="0.14" arrival="58.00" arrivalLane="junctionEast_0" arrivalPos="492.80" arrivalSpeed="27.54" duration="47.00" routeLength="994.90" waitingTime="0.00" waitingCount="0" stopTime="0.00" timeLoss="10.22" rerouteNo="0" devices="tripinfo_westEastBottom0.0 ssm_westEastBottom0.0" vType="carCustom" speedFactor="1.07" vaporized=""/>
    <tripinfo id="southNorth.1" depart="11.00" departLane="southJunction_1" departPos="5.10" departSpeed="27.34" departDelay="0.15" arrival="66.00" arrivalLane="junctionNorth_0" arrivalPos="492.80" arrivalSpeed="26.72" duration="55.00" routeLength="995.01" waitingTime="2.00" waitingCount="1" stopTime="0.00" timeLoss="18.83" rerouteNo="0" devices="tripinfo_southNorth.1 ssm_southNorth.1" vType="carCustom" speedFactor="1.07" vaporized=""/>
    <tripinfo id="westEastTop.3" depart="10.00" departLane="westJunction_1" departPos="5.10" departSpeed="15.55" departDelay="0.90" arrival="71.00" arrivalLane="junctionEast_1" arrivalPos="492.80" arrivalSpeed="27.48" duration="61.00" routeLength="994.90" waitingTime="2.00" waitingCount="1" stopTime="0.00" timeLoss="24.63" rerouteNo="0" devices="tripinfo_westEastTop.3 ssm_westEastTop.3" vType="carCustom" speedFactor="0.80" vaporized=""/>
    <tripinfo id="westEastTop.4" depart="15.00" departLane="westJunction_1" departPos="5.10" departSpeed="12.72" departDelay="0.26" arrival="76.00" arrivalLane="junctionEast_1" arrivalPos="492.80" arrivalSpeed="26.97" duration="61.00" routeLength="994.90" waitingTime="0.00" waitingCount="0" stopTime="0.00" timeLoss="25.18" rerouteNo="0" devices="tripinfo_westEastTop.4 ssm_westEastTop.4" vType="carCustom" speedFactor="0.92" vaporized=""/>
    <tripinfo id="westEastTop.5" depart="17.00" departLane="westJunction_1" departPos="5.10" departSpeed="12.70" departDelay="1.59" arrival="82.00" arrivalLane="junctionEast_1" arrivalPos="492.80" arrivalSpeed="27.12" duration="65.00" routeLength="994.90" waitingTime="0.00" waitingCount="0" stopTime="0.00" timeLoss="28.39" rerouteNo="0" devices="tripinfo_westEastTop.5 ssm_westEastTop.5" vType="carCustom" speedFactor="1.21" vaporized=""/>
    <tripinfo id="westEastTop.6" depart="19.00" departLane="westJunction_1" departPos="5.10" departSpeed="9.53" departDelay="2.19" arrival="87.00" arrivalLane="junctionEast_1" arrivalPos="492.80" arrivalSpeed="27.34" duration="68.00" routeLength="994.90" waitingTime="0.00" waitingCount="0" stopTime="0.00" timeLoss="31.48" rerouteNo="0" devices="tripinfo_westEastTop.6 ssm_westEastTop.6" vType="carCustom" speedFactor="0.87" vaporized=""/>
    <tripinfo id="southEast.1" depart="32.00" departLane="southJunction_0" departPos="5.10" departSpeed="27.78" departDelay="0.57" arrival="88.00" arrivalLane="junctionEast_0" arrivalPos="492.80" arrivalSpeed="27.27" duration="56.00" routeLength="989.53" waitingTime="4.00" waitingCount="1" stopTime="0.00" timeLoss="19.67" rerouteNo="0" devices="tripinfo_southEast.1 ssm_southEast.1" vType="carCustom" speedFactor="0.95" vaporized=""/>
    <tripinfo id="southNorth.2" depart="19.00" departLane="southJunction_1" departPos="5.10" departSpeed="24.62" departDelay="0.31" arrival="90.00" arrivalLane="junctionNorth_0" arrivalPos="492.80" arrivalSpeed="26.91" duration="71.00" routeLength="995.01" waitingTime="17.00" waitingCount="1" stopTime="0.00" timeLoss="35.10" rerouteNo="0" devices="tripinfo_southNorth.2 ssm_southNorth.2" vType="carCustom" speedFactor="0.94" vaporized=""/>
    <tripinfo id="westEastTop.7" depart="22.00" departLane="westJunction_1" departPos="5.10" departSpeed="7.00" departDelay="3.90" arrival="92.00" arrivalLane="junctionEast_1" arrivalPos="492.80" arrivalSpeed="27.68" duration="70.00" routeLength="994.90" waitingTime="0.00" waitingCount="0" stopTime="0.00" timeLoss="33.55" rerouteNo="0" devices="tripinfo_westEastTop.7 ssm_westEastTop.7" vType="carCustom" speedFactor="0.99" vaporized=""/>
    <tripinfo id="southEast.2" depart="42.00" departLane="southJunction_0" departPos="5.10" departSpeed="25.26" departDelay="0.21" arrival="97.00" arrivalLane="junctionEast_1" arrivalPos="492.80" arrivalSpeed="27.04" duration="55.00" routeLength="989.53" waitingTime="0.00" waitingCount="0" stopTime="0.00" timeLoss="17.82" rerouteNo="0" devices="tripinfo_southEast.2 ssm_southEast.2" vType="carCustom" speedFactor="0.99" vaporized=""/>
    <tripinfo id="southNorth.3" depart="40.00" departLane="southJunction_1" departPos="5.10" departSpeed="12.08" departDelay="0.37" arrival="101.00" arrivalLane="junctionNorth_0" arrivalPos="492.80" arrivalSpeed="26.69" duration="61.00" routeLength="995.01" waitingTime="4.00" waitingCount="1" stopTime="0.00" timeLoss="24.55" rerouteNo="0" devices="tripinfo_southNorth.3 ssm_southNorth.3" vType="carCustom" speedFactor="0.95" vaporized=""/>
    <tripinfo id="westEastBottom0.1" depart="39.00" departLane="westJunction_0" departPos="5.10" departSpeed="27.78" departDelay="0.68" arrival="102.00" arrivalLane="junctionEast_1" arrivalPos="492.80" arrivalSpeed="27.31" duration="63.00" routeLength="994.90" waitingTime="2.00" waitingCount="1" stopTime="0.00" timeLoss="26.28" rerouteNo="0" devices="tripinfo_westEastBottom0.1 ssm_westEastBottom0.1" vType="carCustom" speedFactor="0.95" vaporized=""/>
    <tripinfo id="southNorth.4" depart="45.00" departLane="southJunction_1" departPos="5.10" departSpeed="20.92" departDelay="0.50" arrival="106.00" arrivalLane="junctionNorth_0" arrivalPos="492.80" arrivalSpeed="27.48" duration="61.00" routeLength="995.01" waitingTime="0.00" waitingCount="0" stopTime="0.00" timeLoss="25.03" rerouteNo="0" devices="tripinfo_southNorth.4 ssm_southNorth.4" vType="carCustom" speedFactor="1.04" vaporized=""/>
    <tripinfo id="southEast.3" depart="50.00" departLane="southJunction_0" departPos="5.10" departSpeed="26.74" departDelay="0.82" arrival="106.00" arrivalLane="junctionEast_1" arrivalPos="492.80" arrivalSpeed="27.14" duration="56.00" routeLength="989.53" waitingTime="0.00" waitingCount="0" stopTime="0.00" timeLoss="18.91" rerouteNo="0" devices="tripinfo_southEast.3 ssm_southEast.3" vType="carCustom" speedFactor="0.80" vaporized=""/>
    <tripinfo id="westEastBottom0.2" depart="48.00" departLane="westJunction_0" departPos="5.10" departSpeed="17.89" departDelay="0.97" arrival="110.00" arrivalLane="junctionEast_0" arrivalPos="492.80" arrivalSpeed="27.22" duration="62.00" routeLength="994.90" waitingTime="1.00" waitingCount="1" stopTime="0.00" timeLoss="25.44" rerouteNo="0" devices="tripinfo_westEastBottom0.2 ssm_westEastBottom0.2" vType="carCustom" speedFactor="1.12" vaporized=""/>
    <tripinfo id="westEastTop.8" depart="25.00" departLane="westJunction_1" departPos="5.10" departSpeed="6.72" departDelay="6.22" arrival="111.00" arrivalLane="junctionEast_1" arrivalPos="492.80" arrivalSpeed="27.73" duration="86.00" routeLength="994.90" waitingTime="5.00" waitingCount="1" stopTime="0.00" timeLoss="49.91" rerouteNo="0" devices="tripinfo_westEastTop.8 ssm_westEastTop.8" vType="carCustom" speedFactor="0.88" vaporized=""/>
    <tripinfo id="westEastBottom0.3" depart="50.00" departLane="westJunction_0" departPos="5.10" departSpeed="18.25" departDelay="0.83" arrival="115.00" arrivalLane="junctionEast_0" arrivalPos="492.80" arrivalSpeed="27.58" duration="65.00" routeLength="994.90" waitingTime="0.00" waitingCount="0" stopTime="0.00" timeLoss="29.05" rerouteNo="0" devices="tripinfo_westEastBottom0.3 ssm_westEastBottom0.3" vType="carCustom" speedFactor="1.07" vaporized=""/>
    <tripinfo id="westEastTop.9" depart="28.00" departLane="westJunction_1" departPos="5.10" departSpeed="6.56" departDelay="6.19" arrival="116.00" arrivalLane="junctionEast_1" arrivalPos="492.80" arrivalSpeed="26.54" duration="88.00" routeLength="994.90" waitingTime="1.00" waitingCount="1" stopTime="0.00" timeLoss="51.66" rerouteNo="0" devices="tripinfo_westEastTop.9 ssm_westEastTop.9" vType="carCustom" speedFactor="0.97" vaporized=""/>
    <tripinfo id="southNorth.5" depart="53.00" departLane="southJunction_1" departPos="5.10" departSpeed="21.63" departDelay="0.96" arrival="118.00" arrivalLane="junctionNorth_0" arrivalPos="492.80" arrivalSpeed="26.93" duration="65.00" routeLength="995.01" waitingTime="9.00" waitingCount="1" stopTime="0.00" timeLoss="28.95" rerouteNo="0" devices="tripinfo_southNorth.5 ssm_southNorth.5" vType="carCustom" speedFactor="0.81" vaporized=""/>
    <tripinfo id="westEastTop.10" depart="31.00" departLane="westJunction_1" departPos="5.10" departSpeed="5.69" departDelay="7.00" arrival="121.00" arrivalLane="junctionEast_1" arrivalPos="492.80" arrivalSpeed="27.55" duration="90.00" routeLength="994.90" waitingTime="0.00" waitingCount="0" stopTime="0.00" timeLoss="53.30" rerouteNo="0" devices="tripinfo_westEastTop.10 ssm_westEastTop.10" vType="carCustom" speedFactor="1.09" vaporized=""/>
    <tripinfo id="southEast.4" depart="61.00" departLane="southJunction_0" departPos="5.10" departSpeed="20.90" departDelay="0.86" arrival="121.00" arrivalLane="junctionEast_0" arrivalPos="492.80" arrivalSpeed="26.50" duration="60.00" routeLength="989.53" waitingTime="0.00" waitingCount="0" stopTime="0.00" timeLoss="23.07" rerouteNo="0" devices="tripinfo_southEast.4 ssm_southEast.4" vType="carCustom" speedFactor="1.11" vaporized=""/>
    <tripinfo id="southNorth.6" depart="60.00" departLane="southJunction_1" departPos="5.10" departSpeed="21.12" departDelay="0.03" arrival="124.00" arrivalLane="junctionNorth_0" arrivalPos="492.80" arrivalSpeed="27.72" duration="64.00" routeLength="995.01" waitingTime="1.00" waitingCount="1" stopTime="0.00" timeLoss="27.42" rerouteNo="0" devices="tripinfo_southNorth.6 ssm_southNorth.6" vType="carCustom" speedFactor="0.88" vaporized=""/>
    <tripinfo id="westEastTop.11" depart="35.00" departLane="westJunction_1" departPos="5.10" departSpeed="5.08" departDelay="0.09" arrival="125.00" arrivalLane="junctionEast_1" arrivalPos="492.80" arrivalSpeed="27.16" duration="90.00" routeLength="994.90" waitingTime="0.00" waitingCount="0" stopTime="0.00" timeLoss="54.01" rerouteNo="0" devices="tripinfo_westEastTop.11 ssm_westEastTop.11" vType="carCustom" speedFactor="0.83" vaporized=""/>
    <tripinfo id="westEastBottom0.4" depart="54.00" departLane="westJunction_0" departPos="5.10" departSpeed="13.11" departDelay="0.88" arrival="125.00" arrivalLane="junctionEast_0" arrivalPos="492.80" arrivalSpeed="27.32" duration="71.00" routeLength="994.90" waitingTime="0.00" waitingCount="0" stopTime="0.00" timeLoss="35.13" rerouteNo="0" devices="tripinfo_westEastBottom0.4 ssm_westEastBottom0.4" vType="carCustom" speedFactor="1.12" vaporized=""/>
    <tripinfo id="westEastTop.12" depart="38.00" departLane="westJunction_1" departPos="5.10" departSpeed="5.87" departDelay="1.04" arrival="130.00" arrivalLane="junctionEast_1" arrivalPos="492.80" arrivalSpeed="27.27" duration="92.00" routeLength="994.90" waitingTime="4.00" waitingCount="1" stopTime="0.00" timeLoss="55.75" rerouteNo="0" devices="tripinfo_westEastTop.12 ssm_westEastTop.12" vType="carCustom" speedFactor="1.04" vaporized=""/>
    <tripinfo id="southEast.5" depart="69.00" departLane="southJunction_0" departPos="5.10" departSpeed="23.61" departDelay="0.03" arrival="130.00" arrivalLane="junctionEast_0" arrivalPos="492.80" arrivalSpeed="26.95" duration="61.00" routeLength="989.53" waitingTime="0.00" waitingCount="0" stopTime="0.00" timeLoss="24.08" rerouteNo="0" devices="tripinfo_southEast.5 ssm_southEast.5" vType="carCustom" speedFactor="1.09" vaporized=""/>
    <tripinfo id="southNorth.7" depart="73.00" departLane="southJunction_1" departPos="5.10" departSpeed="18.55" departDelay="0.25" arrival="130.00" arrivalLane="junctionNorth_0" arrivalPos="492.80" arrivalSpeed="27.22" duration="57.00" routeLength="995.01" waitingTime="2.00" waitingCount="1" stopTime="0.00" timeLoss="21.08" rerouteNo="0" devices="tripinfo_southNorth.7 ssm_southNorth.7" vType="carCustom" speedFactor="0.96" vaporized=""/>
    <tripinfo id="westEastBottom0.5" depart="56.00" departLane="westJunction_0" departPos="5.10" departSpeed="12.12" departDelay="0.41" arrival="135.00" arrivalLane="junctionEast_0" arrivalPos="492.80" arrivalSpeed="26.54" duration="79.00" routeLength="994.90" waitingTime="2.00" waitingCount="1" stopTime="0.00" timeLoss="42.29" rerouteNo="0" devices="tripinfo_westEastBottom0.5 ssm_westEastBottom0.5" vType="carCustom" speedFactor="0.94" vaporized=""/>
    <tripinfo id="southEast.6" depart="71.00" departLane="southJunction_0" departPos="5.10" departSpeed="24.22" departDelay="1.34" arrival="135.00" arrivalLane="junctionEast_1" arrivalPos="492.80" arrivalSpeed="27.36" duration="64.00" routeLength="989.53" waitingTime="1.00" waitingCount="1" stopTime="0.00" timeLoss="27.17" rerouteNo="0" devices="tripinfo_southEast.6 ssm_southEast.6" vType="carCustom" speedFactor="1.02" vaporized=""/>
    <tripinfo id="westEastTop.13" depart="41.00" departLane="westJunction_1" departPos="5.10" departSpeed="5.10" departDelay="0.29" arrival="140.00" arrivalLane="junctionEast_1" arrivalPos="492.80" arrivalSpeed="27.01" duration="99.00" routeLength="994.90" waitingTime="5.00" waitingCount="1" stopTime="0.00" timeLoss="62.51" rerouteNo="0" devices="tripinfo_westEastTop.13 ssm_westEastTop.13" vType="carCustom" speedFactor="1.03" vaporized=""/>
    <tripinfo id="westEastBottom0.6" depart="58.00" departLane="westJunction_0" departPos="5.10" departSpeed="7.89" departDelay="1.38" arrival="140.00" arrivalLane="junctionEast_0" arrivalPos="492.80" arrivalSpeed="27.53" duration="82.00" routeLength="994.90" waitingTime="4.00" waitingCount="1" stopTime="0.00" timeLoss="45.24" rerouteNo="0" devices="tripinfo_westEastBottom0.6 ssm_westEastBottom0.6" vType="carCustom" speedFactor="0.79" vaporized=""/>
    <tripinfo id="southNorth.8" depart="75.00" departLane="southJunction_1" departPos="5.10" departSpeed="23.04" departDelay="0.18" arrival="144.00" arrivalLane="junctionNorth_0" arrivalPos="492.80" arrivalSpeed="26.53" duration="69.00" routeLength="995.01" waitingTime="9.00" waitingCount="1" stopTime="0.00" timeLoss="33.14" rerouteNo="0" devices="tripinfo_southNorth.8 ssm_southNorth.8" vType="carCustom" speedFactor="1.08" vaporized=""/>
    <tripinfo id="westEastBottom0.7" depart="81.00" departLane="westJunction_0" departPos="5.10" departSpeed="13.15" departDelay="0.31" arrival="144.00" arrivalLane="junctionEast_0" arrivalPos="492.80" arrivalSpeed="27.55" duration="63.00" routeLength="994.90" waitingTime="0.00" waitingCount="0" stopTime="0.00" timeLoss="27.08" rerouteNo="0" devices="tripinfo_westEastBottom0.7 ssm_westEastBottom0.7" vType="carCustom" speedFactor="0.97" vaporized=""/>
    <tripinfo id="westEastTop.14" depart="57.00" departLane="westJunction_1" departPos="5.10" departSpeed="8.93" departDelay="0.13" arrival="145.00" arrivalLane="junctionEast_1" arrivalPos="492.80" arrivalSpeed="27.74" duration="88.00" routeLength="994.90" waitingTime="2.00" waitingCount="1" stopTime="0.00" timeLoss="51.30" rerouteNo="0" devices="tripinfo_westEastTop.14 ssm_westEastTop.14" vType="carCustom" speedFactor="1.02" vaporized=""/>
    <tripinfo id="westEastTop.15" depart="60.00" departLane="westJunction_1" departPos="5.10" departSpeed="14.29" departDelay="0.15" arrival="149.00" arrivalLane="junctionEast_1" arrivalPos="492.80" arrivalSpeed="27.68" duration="89.00" routeLength="994.90" waitingTime="0.00" waitingCount="0" stopTime="0.00" timeLoss="52.94" rerouteNo="0" devices="tripinfo_westEastTop.15 ssm_westEastTop.15" vType="carCustom" speedFactor="0.73" vaporized=""/>
    <tripinfo id="southEast.7" depart="75.00" departLane="southJunction_0" departPos="5.10" departSpeed="15.49" departDelay="0.31" arrival="149.00" arrivalLane="junctionEast_0" arrivalPos="492.80" arrivalSpeed="27.37" duration="74.00" routeLength="989.53" waitingTime="3.00" waitingCount="1" stopTime="0.00" timeLoss="36.75" rerouteNo="0" devices="tripinfo_southEast.7 ssm_southEast.7" vType="carCustom" speedFactor="0.96" vaporized=""/>
    <tripinfo id="southNorth.9" depart="78.00" departLane="southJunction_1" departPos="5.10" departSpeed="17.85" departDelay="0.40" arrival="150.00" arrivalLane="junctionNorth_0" arrivalPos="492.80" arrivalSpeed="27.68" duration="72.00" routeLength="995.01" waitingTime="3.00" waitingCount="1" stopTime="0.00" timeLoss="35.49" rerouteNo="0" devices="tripinfo_southNorth.9 ssm_southNorth.9" vType="carCustom" speedFactor="1.04" vaporized=""/>
    <tripinfo id="westEastTop.16" depart="65.00" departLane="westJunction_1" departPos="5.10" departSpeed="11.67" departDelay="0.60" arrival="154.00" arrivalLane="junctionEast_1" arrivalPos="492.80" arrivalSpeed="27.01" duration="89.00" routeLength="994.90" waitingTime="4.00" waitingCount="1" stopTime="0.00" timeLoss="52.95" rerouteNo="0" devices="tripinfo_westEastTop.16 ssm_westEastTop.16" vType="carCustom" speedFactor="0.99" vaporized=""/>
    <tripinfo id="southEast.8" depart="95.00" departLane="southJunction_0" departPos="5.10" departSpeed="15.32" departDelay="0.00" arrival="154.00" arrivalLane="junctionEast_0" arrivalPos="492.80" arrivalSpeed="26.59" duration="59.00" routeLength="989.53" waitingTime="0.00" waitingCount="0" stopTime="0.00" timeLoss="21.25" rerouteNo="0" devices="tripinfo_southEast.8 ssm_southEast.8" vType="carCustom" speedFactor="1.00" vaporized=""/>
    <tripinfo id="westEastBottom0.8" depart="94.00" departLane="westJunction_0" departPos="5.10" departSpeed="17.45" departDelay="0.38" arrival="158.00" arrivalLane="junctionEast_0" arrivalPos="492.80" arrivalSpeed="27.54" duration="64.00" routeLength="994.90" waitingTime="0.00" waitingCount="0" stopTime="0.00" timeLoss="27.99" rerouteNo="0" devices="tripinfo_westEastBottom0.8 ssm_westEastBottom0.8" vType="carCustom" speedFactor="0.93" vaporized=""/>
    <tripinfo id="westEastTop.17" depart="73.00" departLane="westJunction_1" departPos="5.10" departSpeed="12.44" departDelay="0.13" arrival="159.00" arrivalLane="junctionEast_1" arrivalPos="492.80" arrivalSpeed="27.47" duration="86.00" routeLength="994.90" waitingTime="0.00" waitingCount="0" stopTime="0.00" timeLoss="49.88" rerouteNo="0" devices="tripinfo_westEastTop.17 ssm_westEastTop.17" vType="carCustom" speedFactor="1.00" vaporized=""/>
    <tripinfo id="westEastBottom0.9" depart="96.00" departLane="westJunction_0" departPos="5.10" departSpeed="17.62" departDelay="1.74" arrival="163.00" arrivalLane="junctionEast_0" arrivalPos="492.80" arrivalSpeed="27.63" duration="67.00" routeLength="994.90" waitingTime="0.00" waitingCount="0" stopTime="0.00" timeLoss="30.47" rerouteNo="0" devices="tripinfo_westEastBottom0.9 ssm_westEastBottom0.9" vType="carCustom" speedFactor="1.19" vaporized=""/>
    <tripinfo id="westEastTop.18" depart="75.00" departLane="westJunction_1" departPos="5.10" departSpeed="15.15" departDelay="1.72" arrival="164.00" arrivalLane="junctionEast_1" arrivalPos="492.80" arrivalSpeed="26.74" duration="89.00" routeLength="994.90" waitingTime="0.00" waitingCount="0" stopTime="0.00" timeLoss="52.65" rerouteNo="0" devices="tripinfo_westEastTop.18 ssm_westEastTop.18" vType="carCustom" speedFactor="0.96" vaporized=""/>
    <tripinfo id="southEast.9" depart="97.00" departLane="southJunction_0" departPos="5.10" departSpeed="19.35" departDelay="0.51" arrival="167.00" arrivalLane="junctionEast_0" arrivalPos="492.80" arrivalSpeed="27.63" duration="70.00" routeLength="989.53" waitingTime="6.00" waitingCount="1" stopTime="0.00" timeLoss="33.73" rerouteNo="0" devices="tripinfo_southEast.9 ssm_southEast.9" vType="carCustom" speedFactor="1.04" vaporized=""/>
    <tripinfo id="westEastTop.19" depart="90.00" departLane="westJunction_1" departPos="5.10" departSpeed="12.06" departDelay="0.47" arrival="168.00" arrivalLane="junctionEast_1" arrivalPos="492.80" arrivalSpeed="27.67" duration="78.00" routeLength="994.90" waitingTime="0.00" waitingCount="0" stopTime="0.00" timeLoss="42.17" rerouteNo="0" devices="tripinfo_westEastTop.19 ssm_westEastTop.19" vType="carCustom" speedFactor="0.81" vaporized=""/>
    <tripinfo id="southNorth.10" depart="100.00" departLane="southJunction_1" departPos="5.10" departSpeed="14.34" departDelay="0.09" arrival="170.00" arrivalLane="junctionNorth_0" arrivalPos="492.80" arrivalSpeed="27.61" duration="70.00" routeLength="995.01" waitingTime="16.00" waitingCount="1" stopTime="0.00" timeLoss="34.01" rerouteNo="0" devices="tripinfo_southNorth.10 ssm_southNorth.10" vType="carCustom" speedFactor="0.99" vaporized=""/>
    <tripinfo id="southEast.10" depart="99.00" departLane="southJunction_0" departPos="5.10" departSpeed="14.44" departDelay="0.40" arrival="172.00" arrivalLane="junctionEast_0" arrivalPos="492.80" arrivalSpeed="26.87" duration="73.00" routeLength="989.53" waitingTime="0.00" waitingCount="0" stopTime="0.00" timeLoss="36.38" rerouteNo="0" devices="tripinfo_southEast.10 ssm_southEast.10" vType="carCustom" speedFactor="1.00" vaporized=""/>
    <tripinfo id="westEastTop.20" depart="92.00" departLane="westJunction_1" departPos="5.10" departSpeed="16.08" departDelay="0.01" arrival="173.00" arrivalLane="junctionEast_1" arrivalPos="492.80" arrivalSpeed="27.07" duration="81.00" routeLength="994.90" waitingTime="0.00" waitingCount="0" stopTime="0.00" timeLoss="44.61" rerouteNo="0" devices="tripinfo_westEastTop.20 ssm_westEastTop.20" vType="carCustom" speedFactor="0.97" vaporized=""/>
    <tripinfo id="southNorth.11" depart="107.00" departLane="southJunction_1" departPos="5.10" departSpeed="27.14" departDelay="0.02" arrival="176.00" arrivalLane="junctionNorth_0" arrivalPos="492.80" arrivalSpeed="27.14" duration="69.00" routeLength="995.01" waitingTime="8.00" waitingCount="1" stopTime="0.00" timeLoss="32.54" rerouteNo="0" devices="tripinfo_southNorth.11 ssm_southNorth.11" vType="carCustom" speedFactor="1.00" vaporized=""/>
    <tripinfo id="westEastBottom0.10" depart="111.00" departLane="westJunction_0" departPos="5.10" departSpeed="15.40" departDelay="0.88" arrival="177.00" arrivalLane="junctionEast_0" arrivalPos="492.80" arrivalSpeed="26.90" duration="66.00" routeLength="994.90" waitingTime="0.00" waitingCount="0" stopTime="0.00" timeLoss="29.27" rerouteNo="0" devices="tripinfo_westEastBottom0.10 ssm_westEastBottom0.10" vType="carCustom" speedFactor="0.99" vaporized=""/>
    <tripinfo id="westEastTop.21" depart="94.00" departLane="westJunction_1" departPos="5.10" departSpeed="11.75" departDelay="1.25" arrival="178.00" arrivalLane="junctionEast_1" arrivalPos="492.80" arrivalSpeed="27.61" duration="84.00" routeLength="994.90" waitingTime="0.00" waitingCount="0" stopTime="0.00" timeLoss="47.22" rerouteNo="0" devices="tripinfo_westEastTop.21 ssm_westEastTop.21" vType="carCustom" speedFactor="0.91" vaporized=""/>
    <tripinfo id="southEast.11" depart="111.00" departLane="southJunction_0" departPos="5.10" departSpeed="15.95" departDelay="0.99" arrival="181.00" arrivalLane="junctionEast_0" arrivalPos="492.80" arrivalSpeed="27.13" duration="70.00" routeLength="989.53" waitingTime="1.00" waitingCount="1" stopTime="0.00" timeLoss="33.31" rerouteNo="0" devices="tripinfo_southEast.11 ssm_southEast.11" vType="carCustom" speedFactor="1.13" vaporized=""/>
    <tripinfo id="westEastTop.22" depart="97.00" departLane="westJunction_1" departPos="5.10" departSpeed="9.87" departDelay="0.04" arrival="182.00" arrivalLane="junctionEast_1" arrivalPos="492.80" arrivalSpeed="27.58" duration="85.00" routeLength="994.90" waitingTime="3.00" waitingCount="1" stopTime="0.00" timeLoss="49.05" rerouteNo="0" devices="tripinfo_westEastTop.22 ssm_westEastTop.22" vType="carCustom" speedFactor="0.96" vaporized=""/>
    <tripinfo id="westEastBottom0.11" depart="113.00" departLane="westJunction_0" departPos="5.10" departSpeed="15.73" departDelay="0.63" arrival="186.00" arrivalLane="junctionEast_0" arrivalPos="492.80" arrivalSpeed="27.36" duration="73.00" routeLength="994.90" waitingTime="1.00" waitingCount="1" stopTime="0.00" timeLoss="36.26" rerouteNo="0" devices="tripinfo_westEastBottom0.11 ssm_westEastBottom0.11" vType="carCustom" speedFactor="0.98" vaporized=""/>
    <tripinfo id="southNorth.12" depart="119.00" departLane="southJunction_1" departPos="5.10" departSpeed="20.71" departDelay="0.54" arrival="186.00" arrivalLane="junctionNorth_0" arrivalPos="492.80" arrivalSpeed="27.42" duration="67.00" routeLength="995.01" waitingTime="5.00" waitingCount="1" stopTime="0.00" timeLoss="31.02" rerouteNo="0" devices="tripinfo_southNorth.12 ssm_southNorth.12" vType="carCustom" speedFactor="0.94" vaporized=""/>
    <tripinfo id="westEastTop.23" depart="102.00" departLane="westJunction_1" departPos="5.10" departSpeed="10.26" departDelay="0.43" arrival="187.00" arrivalLane="junctionEast_1" arrivalPos="492.80" arrivalSpeed="27.68" duration="85.00" routeLength="994.90" waitingTime="0.00" waitingCount="0" stopTime="0.00" timeLoss="48.62" rerouteNo="0" devices="tripinfo_westEastTop.23 ssm_westEastTop.23" vType="carCustom" speedFactor="1.01" vaporized=""/>
    <tripinfo id="westEastBottom0.12" depart="115.00" departLane="westJunction_0" departPos="5.10" departSpeed="11.49" departDelay="0.77" arrival="190.00" arrivalLane="junctionEast_0" arrivalPos="492.80" arrivalSpeed="26.94" duration="75.00" routeLength="994.90" waitingTime="0.00" waitingCount="0" stopTime="0.00" timeLoss="38.89" rerouteNo="0" devices="tripinfo_westEastBottom0.12 ssm_westEastBottom0.12" vType="carCustom" speedFactor="1.04" vaporized=""/>
    <tripinfo id="westEastTop.24" depart="105.00" departLane="westJunction_1" departPos="5.10" departSpeed="10.91" departDelay="0.77" arrival="192.00" arrivalLane="junctionEast_1" arrivalPos="492.80" arrivalSpeed="26.92" duration="87.00" routeLength="994.90" waitingTime="0.00" waitingCount="0" stopTime="0.00" timeLoss="50.25" rerouteNo="0" devices="tripinfo_westEastTop.24 ssm_westEastTop.24" vType="carCustom" speedFactor="1.13" vaporized=""/>