<?xml version="1.0" encoding="UTF-8"?>

<!-- generated on 2025-04-29 04:01:14 by Eclipse SUMO sumo Version 1.20.0
<configuration xmlns:xsi="http://www.w3.org/2001/XMLSchema-instance" xsi:noNamespaceSchemaLocation="http://sumo.dlr.de/xsd/sumoConfiguration.xsd">

    <input>
        <net-file value="nets/2lane_unprotected_right/2lane_unprotected_right.net.xml"/>
        <route-files value="nets/2lane_unprotected_right/2lane_unprotected_right.rou.xml"/>
    </input>

    <output>
        <tripinfo-output value="traces/transs50f0.5_s50_f1_random/0012_tripinfo.xml"/>
        <collision-output value="traces/transs50f0.5_s50_f1_random/0012_collisions.xml"/>
        <statistic-output value="traces/transs50f0.5_s50_f1_random/0012_statistics.xml"/>
    </output>

    <processing>
        <collision.action value="teleport"/>
        <collision.check-junctions value="true"/>
        <time-to-teleport value="-1"/>
        <waiting-time-memory value="1000"/>
        <max-depart-delay value="-1"/>
        <default.speeddev value="0.1"/>
    </processing>

    <report>
        <no-warnings value="true"/>
    </report>

    <ssm_device>
        <device.ssm.probability value="1.0"/>
        <device.ssm.measures value="BR"/>
        <device.ssm.file value="/Users/finn/Code/CausalKnowledgeTransfer-4-SafeRL/traces/transs50f0.5_s50_f1_random/0012_ssm.xml"/>
    </ssm_device>

    <traci_server>
        <remote-port value="62534"/>
    </traci_server>

    <random_number>
        <random value="true"/>
    </random_number>

</configuration>
-->

<tripinfos xmlns:xsi="http://www.w3.org/2001/XMLSchema-instance" xsi:noNamespaceSchemaLocation="http://sumo.dlr.de/xsd/tripinfo_file.xsd">
    <tripinfo id="westEastTop.0" depart="2.00" departLane="westJunction_1" departPos="5.10" departSpeed="22.22" departDelay="0.27" arrival="49.00" arrivalLane="junctionEast_1" arrivalPos="492.80" arrivalSpeed="22.14" duration="47.00" routeLength="994.90" waitingTime="0.00" waitingCount="0" stopTime="0.00" timeLoss="1.48" rerouteNo="0" devices="tripinfo_westEastTop.0 ssm_westEastTop.0" vType="carCustom" speedFactor="1.12" vaporized=""/>
    <tripinfo id="southEast.0" depart="3.00" departLane="southJunction_0" departPos="5.10" departSpeed="22.22" departDelay="0.79" arrival="56.00" arrivalLane="junctionEast_0" arrivalPos="492.80" arrivalSpeed="21.81" duration="53.00" routeLength="989.53" waitingTime="0.00" waitingCount="0" stopTime="0.00" timeLoss="7.22" rerouteNo="0" devices="tripinfo_southEast.0 ssm_southEast.0" vType="carCustom" speedFactor="1.19" vaporized=""/>
    <tripinfo id="westEastBottom0.3" depart="13.00" departLane="westJunction_0" departPos="5.10" departSpeed="10.76" departDelay="3.78" arrival="56.00" arrivalLane="junctionEast_0" arrivalPos="492.80" arrivalSpeed="15.00" duration="43.00" routeLength="994.90" waitingTime="0.00" waitingCount="0" stopTime="0.00" timeLoss="20.23" rerouteNo="0" devices="tripinfo_westEastBottom0.3 ssm_westEastBottom0.3" vType="carCustom" speedFactor="0.94" vaporized="teleport"/>
    <tripinfo id="westEastTop.1" depart="4.00" departLane="westJunction_1" departPos="5.10" departSpeed="21.75" departDelay="1.83" arrival="57.00" arrivalLane="junctionEast_1" arrivalPos="492.80" arrivalSpeed="21.74" duration="53.00" routeLength="994.90" waitingTime="0.00" waitingCount="0" stopTime="0.00" timeLoss="7.70" rerouteNo="0" devices="tripinfo_westEastTop.1 ssm_westEastTop.1" vType="carCustom" speedFactor="0.99" vaporized=""/>
    <tripinfo id="westEastBottom0.0" depart="7.00" departLane="westJunction_0" departPos="5.10" departSpeed="22.22" departDelay="0.02" arrival="64.00" arrivalLane="junctionEast_0" arrivalPos="492.80" arrivalSpeed="22.20" duration="57.00" routeLength="994.90" waitingTime="0.00" waitingCount="0" stopTime="0.00" timeLoss="11.35" rerouteNo="0" devices="tripinfo_westEastBottom0.0 ssm_westEastBottom0.0" vType="carCustom" speedFactor="0.99" vaporized=""/>
    <tripinfo id="southNorth.0" depart="11.00" departLane="southJunction_1" departPos="5.10" departSpeed="22.22" departDelay="0.77" arrival="65.00" arrivalLane="junctionNorth_0" arrivalPos="492.80" arrivalSpeed="21.90" duration="54.00" routeLength="995.01" waitingTime="0.00" waitingCount="0" stopTime="0.00" timeLoss="8.42" rerouteNo="0" devices="tripinfo_southNorth.0 ssm_southNorth.0" vType="carCustom" speedFactor="1.08" vaporized=""/>
    <tripinfo id="westEastBottom0.1" depart="9.00" departLane="westJunction_0" departPos="5.10" departSpeed="20.00" departDelay="0.90" arrival="70.00" arrivalLane="junctionEast_1" arrivalPos="492.80" arrivalSpeed="22.10" duration="61.00" routeLength="994.90" waitingTime="0.00" waitingCount="0" stopTime="0.00" timeLoss="15.29" rerouteNo="0" devices="tripinfo_westEastBottom0.1 ssm_westEastBottom0.1" vType="carCustom" speedFactor="0.92" vaporized=""/>
    <tripinfo id="westEastTop.2" depart="6.00" departLane="westJunction_1" departPos="5.10" departSpeed="17.06" departDelay="2.06" arrival="74.00" arrivalLane="junctionEast_0" arrivalPos="492.80" arrivalSpeed="21.77" duration="68.00" routeLength="994.90" waitingTime="0.00" waitingCount="0" stopTime="0.00" timeLoss="22.76" rerouteNo="0" devices="tripinfo_westEastTop.2 ssm_westEastTop.2" vType="carCustom" speedFactor="0.94" vaporized=""/>
    <tripinfo id="westEastBottom0.2" depart="11.00" departLane="westJunction_0" departPos="5.10" departSpeed="15.31" departDelay="2.33" arrival="77.00" arrivalLane="junctionEast_1" arrivalPos="492.80" arrivalSpeed="21.84" duration="66.00" routeLength="994.90" waitingTime="0.00" waitingCount="0" stopTime="0.00" timeLoss="20.43" rerouteNo="0" devices="tripinfo_westEastBottom0.2 ssm_westEastBottom0.2" vType="carCustom" speedFactor="0.96" vaporized=""/>
    <tripinfo id="westEastTop.3" depart="8.00" departLane="westJunction_1" departPos="5.10" departSpeed="12.36" departDelay="3.13" arrival="83.00" arrivalLane="junctionEast_0" arrivalPos="492.80" arrivalSpeed="21.43" duration="75.00" routeLength="994.90" waitingTime="0.00" waitingCount="0" stopTime="0.00" timeLoss="29.33" rerouteNo="0" devices="tripinfo_westEastTop.3 ssm_westEastTop.3" vType="carCustom" speedFactor="1.12" vaporized=""/>
    <tripinfo id="southEast.1" depart="26.00" departLane="southJunction_0" departPos="5.10" departSpeed="11.13" departDelay="0.84" arrival="87.00" arrivalLane="junctionEast_0" arrivalPos="492.80" arrivalSpeed="21.86" duration="61.00" routeLength="989.53" waitingTime="0.00" waitingCount="0" stopTime="0.00" timeLoss="14.97" rerouteNo="0" devices="tripinfo_southEast.1 ssm_southEast.1" vType="carCustom" speedFactor="0.99" vaporized=""/>
    <tripinfo id="westEastTop.4" depart="10.00" departLane="westJunction_1" departPos="5.10" departSpeed="8.18" departDelay="0.82" arrival="92.00" arrivalLane="junctionEast_0" arrivalPos="492.80" arrivalSpeed="21.06" duration="82.00" routeLength="994.90" waitingTime="0.00" waitingCount="0" stopTime="0.00" timeLoss="37.17" rerouteNo="0" devices="tripinfo_westEastTop.4 ssm_westEastTop.4" vType="carCustom" speedFactor="0.95" vaporized=""/>
    <tripinfo id="southNorth.1" depart="34.00" departLane="southJunction_1" departPos="5.10" departSpeed="11.13" departDelay="0.80" arrival="93.00" arrivalLane="junctionNorth_0" arrivalPos="492.80" arrivalSpeed="22.03" duration="59.00" routeLength="995.01" waitingTime="2.00" waitingCount="1" stopTime="0.00" timeLoss="14.09" rerouteNo="0" devices="tripinfo_southNorth.1 ssm_southNorth.1" vType="carCustom" speedFactor="0.96" vaporized=""/>
    <tripinfo id="southEast.2" depart="29.00" departLane="southJunction_0" departPos="5.10" departSpeed="16.35" departDelay="0.20" arrival="96.00" arrivalLane="junctionEast_0" arrivalPos="492.80" arrivalSpeed="21.05" duration="67.00" routeLength="989.53" waitingTime="0.00" waitingCount="0" stopTime="0.00" timeLoss="21.06" rerouteNo="0" devices="tripinfo_southEast.2 ssm_southEast.2" vType="carCustom" speedFactor="1.04" vaporized=""/>
    <tripinfo id="westEastTop.5" depart="19.00" departLane="westJunction_1" departPos="5.10" departSpeed="8.97" departDelay="0.46" arrival="97.00" arrivalLane="junctionEast_1" arrivalPos="492.80" arrivalSpeed="21.74" duration="78.00" routeLength="994.90" waitingTime="0.00" waitingCount="0" stopTime="0.00" timeLoss="32.89" rerouteNo="0" devices="tripinfo_westEastTop.5 ssm_westEastTop.5" vType="carCustom" speedFactor="0.82" vaporized=""/>
    <tripinfo id="westEastBottom0.4" depart="43.00" departLane="westJunction_0" departPos="5.10" departSpeed="13.76" departDelay="0.06" arrival="103.00" arrivalLane="junctionEast_1" arrivalPos="492.80" arrivalSpeed="21.63" duration="60.00" routeLength="994.90" waitingTime="0.00" waitingCount="0" stopTime="0.00" timeLoss="14.82" rerouteNo="0" devices="tripinfo_westEastBottom0.4 ssm_westEastBottom0.4" vType="carCustom" speedFactor="1.04" vaporized=""/>
    <tripinfo id="southNorth.2" depart="39.00" departLane="southJunction_1" departPos="5.10" departSpeed="20.55" departDelay="0.43" arrival="104.00" arrivalLane="junctionNorth_0" arrivalPos="492.80" arrivalSpeed="21.02" duration="65.00" routeLength="995.01" waitingTime="1.00" waitingCount="1" stopTime="0.00" timeLoss="19.35" rerouteNo="0" devices="tripinfo_southNorth.2 ssm_southNorth.2" vType="carCustom" speedFactor="1.08" vaporized=""/>
    <tripinfo id="westEastTop.6" depart="25.00" departLane="westJunction_1" departPos="5.10" departSpeed="10.54" departDelay="0.89" arrival="108.00" arrivalLane="junctionEast_0" arrivalPos="492.80" arrivalSpeed="21.01" duration="83.00" routeLength="994.90" waitingTime="0.00" waitingCount="0" stopTime="0.00" timeLoss="37.94" rerouteNo="0" devices="tripinfo_westEastTop.6 ssm_westEastTop.6" vType="carCustom" speedFactor="0.89" vaporized=""/>
    <tripinfo id="westEastBottom0.5" depart="46.00" departLane="westJunction_0" departPos="5.10" departSpeed="16.09" departDelay="0.30" arrival="109.00" arrivalLane="junctionEast_1" arrivalPos="492.80" arrivalSpeed="21.66" duration="63.00" routeLength="994.90" waitingTime="0.00" waitingCount="0" stopTime="0.00" timeLoss="17.96" rerouteNo="0" devices="tripinfo_westEastBottom0.5 ssm_westEastBottom0.5" vType="carCustom" speedFactor="1.12" vaporized=""/>
    <tripinfo id="southNorth.3" depart="41.00" departLane="southJunction_1" departPos="5.10" departSpeed="16.97" departDelay="0.36" arrival="114.00" arrivalLane="junctionNorth_0" arrivalPos="492.80" arrivalSpeed="21.32" duration="73.00" routeLength="995.01" waitingTime="2.00" waitingCount="1" stopTime="0.00" timeLoss="27.78" rerouteNo="0" devices="tripinfo_southNorth.3 ssm_southNorth.3" vType="carCustom" speedFactor="1.04" vaporized=""/>
    <tripinfo id="westEastTop.7" depart="27.00" departLane="westJunction_1" departPos="5.10" departSpeed="10.68" departDelay="2.68" arrival="115.00" arrivalLane="junctionEast_1" arrivalPos="492.80" arrivalSpeed="21.18" duration="88.00" routeLength="994.90" waitingTime="2.00" waitingCount="1" stopTime="0.00" timeLoss="42.81" rerouteNo="0" devices="tripinfo_westEastTop.7 ssm_westEastTop.7" vType="carCustom" speedFactor="1.05" vaporized=""/>
    <tripinfo id="westEastBottom0.6" depart="60.00" departLane="westJunction_0" departPos="5.10" departSpeed="14.34" departDelay="0.22" arrival="121.00" arrivalLane="junctionEast_0" arrivalPos="492.80" arrivalSpeed="21.35" duration="61.00" routeLength="994.90" waitingTime="0.00" waitingCount="0" stopTime="0.00" timeLoss="15.63" rerouteNo="0" devices="tripinfo_westEastBottom0.6 ssm_westEastBottom0.6" vType="carCustom" speedFactor="0.86" vaporized=""/>
    <tripinfo id="southNorth.4" depart="55.00" departLane="southJunction_1" departPos="5.10" departSpeed="15.21" departDelay="0.48" arrival="123.00" arrivalLane="junctionNorth_0" arrivalPos="492.80" arrivalSpeed="22.10" duration="68.00" routeLength="995.01" waitingTime="3.00" waitingCount="1" stopTime="0.00" timeLoss="22.81" rerouteNo="0" devices="tripinfo_southNorth.4 ssm_southNorth.4" vType="carCustom" speedFactor="1.04" vaporized=""/>
    <tripinfo id="southEast.3" depart="65.00" departLane="southJunction_0" departPos="5.10" departSpeed="22.22" departDelay="0.80" arrival="125.00" arrivalLane="junctionEast_1" arrivalPos="492.80" arrivalSpeed="20.93" duration="60.00" routeLength="989.53" waitingTime="0.00" waitingCount="0" stopTime="0.00" timeLoss="14.03" rerouteNo="0" devices="tripinfo_southEast.3 ssm_southEast.3" vType="carCustom" speedFactor="1.00" vaporized=""/>
    <tripinfo id="westEastTop.8" depart="34.00" departLane="westJunction_1" departPos="5.10" departSpeed="8.40" departDelay="0.07" arrival="127.00" arrivalLane="junctionEast_0" arrivalPos="492.80" arrivalSpeed="22.14" duration="93.00" routeLength="994.90" waitingTime="3.00" waitingCount="1" stopTime="0.00" timeLoss="47.60" rerouteNo="0" devices="tripinfo_westEastTop.8 ssm_westEastTop.8" vType="carCustom" speedFactor="0.95" vaporized=""/>
    <tripinfo id="westEastTop.9" depart="43.00" departLane="westJunction_1" departPos="5.10" departSpeed="9.80" departDelay="0.65" arrival="131.00" arrivalLane="junctionEast_1" arrivalPos="492.80" arrivalSpeed="21.01" duration="88.00" routeLength="994.90" waitingTime="0.00" waitingCount="0" stopTime="0.00" timeLoss="42.52" rerouteNo="0" devices="tripinfo_westEastTop.9 ssm_westEastTop.9" vType="carCustom" speedFactor="0.97" vaporized=""/>
    <tripinfo id="westEastBottom0.7" depart="62.00" departLane="westJunction_0" departPos="5.10" departSpeed="17.58" departDelay="1.49" arrival="133.00" arrivalLane="junctionEast_0" arrivalPos="492.80" arrivalSpeed="21.83" duration="71.00" routeLength="994.90" waitingTime="0.00" waitingCount="0" stopTime="0.00" timeLoss="25.70" rerouteNo="0" devices="tripinfo_westEastBottom0.7 ssm_westEastBottom0.7" vType="carCustom" speedFactor="1.13" vaporized=""/>
    <tripinfo id="southNorth.5" depart="62.00" departLane="southJunction_1" departPos="5.10" departSpeed="18.65" departDelay="0.36" arrival="133.00" arrivalLane="junctionNorth_0" arrivalPos="492.80" arrivalSpeed="22.18" duration="71.00" routeLength="995.01" waitingTime="3.00" waitingCount="1" stopTime="0.00" timeLoss="25.33" rerouteNo="0" devices="tripinfo_southNorth.5 ssm_southNorth.5" vType="carCustom" speedFactor="0.96" vaporized=""/>
    <tripinfo id="westEastTop.10" depart="51.00" departLane="westJunction_1" departPos="5.10" departSpeed="11.45" departDelay="0.47" arrival="137.00" arrivalLane="junctionEast_1" arrivalPos="492.80" arrivalSpeed="21.28" duration="86.00" routeLength="994.90" waitingTime="0.00" waitingCount="0" stopTime="0.00" timeLoss="40.57" rerouteNo="0" devices="tripinfo_westEastTop.10 ssm_westEastTop.10" vType="carCustom" speedFactor="0.92" vaporized=""/>
    <tripinfo id="southNorth.6" depart="74.00" departLane="southJunction_1" departPos="5.10" departSpeed="16.69" departDelay="0.88" arrival="139.00" arrivalLane="junctionNorth_0" arrivalPos="492.80" arrivalSpeed="22.17" duration="65.00" routeLength="995.01" waitingTime="0.00" waitingCount="0" stopTime="0.00" timeLoss="20.15" rerouteNo="0" devices="tripinfo_southNorth.6 ssm_southNorth.6" vType="carCustom" speedFactor="0.88" vaporized=""/>
    <tripinfo id="westEastBottom0.8" depart="74.00" departLane="westJunction_0" departPos="5.10" departSpeed="14.28" departDelay="0.02" arrival="143.00" arrivalLane="junctionEast_0" arrivalPos="492.80" arrivalSpeed="21.05" duration="69.00" routeLength="994.90" waitingTime="1.00" waitingCount="1" stopTime="0.00" timeLoss="23.77" rerouteNo="0" devices="tripinfo_westEastBottom0.8 ssm_westEastBottom0.8" vType="carCustom" speedFactor="1.04" vaporized=""/>
    <tripinfo id="westEastTop.11" depart="53.00" departLane="westJunction_1" departPos="5.10" departSpeed="14.09" departDelay="2.35" arrival="146.00" arrivalLane="junctionEast_0" arrivalPos="492.80" arrivalSpeed="21.24" duration="93.00" routeLength="994.90" waitingTime="5.00" waitingCount="1" stopTime="0.00" timeLoss="48.04" rerouteNo="0" devices="tripinfo_westEastTop.11 ssm_westEastTop.11" vType="carCustom" speedFactor="0.95" vaporized=""/>
    <tripinfo id="southNorth.7" depart="76.00" departLane="southJunction_1" departPos="5.10" departSpeed="20.56" departDelay="2.20" arrival="147.00" arrivalLane="junctionNorth_0" arrivalPos="492.80" arrivalSpeed="20.98" duration="71.00" routeLength="995.01" waitingTime="1.00" waitingCount="1" stopTime="0.00" timeLoss="25.47" rerouteNo="0" devices="tripinfo_southNorth.7 ssm_southNorth.7" vType="carCustom" speedFactor="0.88" vaporized=""/>
    <tripinfo id="westEastTop.12" depart="55.00" departLane="westJunction_1" departPos="5.10" departSpeed="9.76" departDelay="2.50" arrival="151.00" arrivalLane="junctionEast_0" arrivalPos="492.80" arrivalSpeed="21.09" duration="96.00" routeLength="994.90" waitingTime="0.00" waitingCount="0" stopTime="0.00" timeLoss="51.18" rerouteNo="0" devices="tripinfo_westEastTop.12 ssm_westEastTop.12" vType="carCustom" speedFactor="1.16" vaporized=""/>
    <tripinfo id="westEastTop.13" depart="59.00" departLane="westJunction_1" departPos="5.10" departSpeed="5.92" departDelay="0.00" arrival="154.00" arrivalLane="junctionEast_1" arrivalPos="492.80" arrivalSpeed="21.21" duration="95.00" routeLength="994.90" waitingTime="2.00" waitingCount="1" stopTime="0.00" timeLoss="49.99" rerouteNo="0" devices="tripinfo_westEastTop.13 ssm_westEastTop.13" vType="carCustom" speedFactor="0.98" vaporized=""/>
    <tripinfo id="westEastBottom0.9" depart="76.00" departLane="westJunction_0" departPos="5.10" departSpeed="18.04" departDelay="0.60" arrival="157.00" arrivalLane="junctionEast_0" arrivalPos="492.80" arrivalSpeed="21.82" duration="81.00" routeLength="994.90" waitingTime="4.00" waitingCount="1" stopTime="0.00" timeLoss="35.29" rerouteNo="0" devices="tripinfo_westEastBottom0.9 ssm_westEastBottom0.9" vType="carCustom" speedFactor="0.87" vaporized=""/>
    <tripinfo id="westEastTop.14" depart="70.00" departLane="westJunction_1" departPos="5.10" departSpeed="9.12" departDelay="0.24" arrival="161.00" arrivalLane="junctionEast_1" arrivalPos="492.80" arrivalSpeed="21.83" duration="91.00" routeLength="994.90" waitingTime="0.00" waitingCount="0" stopTime="0.00" timeLoss="45.34" rerouteNo="0" devices="tripinfo_westEastTop.14 ssm_westEastTop.14" vType="carCustom" speedFactor="1.03" vaporized=""/>
    <tripinfo id="westEastBottom0.10" depart="81.00" departLane="westJunction_0" departPos="5.10" departSpeed="12.00" departDelay="0.24" arrival="162.00" arrivalLane="junctionEast_0" arrivalPos="492.80" arrivalSpeed="22.07" duration="81.00" routeLength="994.90" waitingTime="0.00" waitingCount="0" stopTime="0.00" timeLoss="35.87" rerouteNo="0" devices="tripinfo_westEastBottom0.10 ssm_westEastBottom0.10" vType="carCustom" speedFactor="1.17" vaporized=""/>
    <tripinfo id="westEastTop.15" depart="76.00" departLane="westJunction_1" departPos="5.10" departSpeed="11.08" departDelay="0.32" arrival="167.00" arrivalLane="junctionEast_1" arrivalPos="492.80" arrivalSpeed="21.57" duration="91.00" routeLength="994.90" waitingTime="0.00" waitingCount="0" stopTime="0.00" timeLoss="45.54" rerouteNo="0" devices="tripinfo_westEastTop.15 ssm_westEastTop.15" vType="carCustom" speedFactor="0.86" vaporized=""/>
    <tripinfo id="southEast.4" depart="97.00" departLane="southJunction_0" departPos="5.10" departSpeed="22.22" departDelay="0.35" arrival="168.00" arrivalLane="junctionEast_0" arrivalPos="492.80" arrivalSpeed="21.60" duration="71.00" routeLength="989.53" waitingTime="0.00" waitingCount="0" stopTime="0.00" timeLoss="25.04" rerouteNo="0" devices="tripinfo_southEast.4 ssm_southEast.4" vType="carCustom" speedFactor="1.11" vaporized=""/>
    <tripinfo id="westEastTop.16" depart="78.00" departLane="westJunction_1" departPos="5.10" departSpeed="11.69" departDelay="1.82" arrival="173.00" arrivalLane="junctionEast_1" arrivalPos="492.80" arrivalSpeed="21.04" duration="95.00" routeLength="994.90" waitingTime="0.00" waitingCount="0" stopTime="0.00" timeLoss="49.43" rerouteNo="0" devices="tripinfo_westEastTop.16 ssm_westEastTop.16" vType="carCustom" speedFactor="0.99" vaporized=""/>
    <tripinfo id="westEastBottom0.11" depart="89.00" departLane="westJunction_0" departPos="5.10" departSpeed="12.69" departDelay="0.68" arrival="173.00" arrivalLane="junctionEast_0" arrivalPos="492.80" arrivalSpeed="21.53" duration="84.00" routeLength="994.90" waitingTime="0.00" waitingCount="0" stopTime="0.00" timeLoss="38.94" rerouteNo="0" devices="tripinfo_westEastBottom0.11 ssm_westEastBottom0.11" vType="carCustom" speedFactor="1.11" vaporized=""/>
    <tripinfo id="westEastTop.17" depart="84.00" departLane="westJunction_1" departPos="5.10" departSpeed="8.48" departDelay="0.71" arrival="178.00" arrivalLane="junctionEast_1" arrivalPos="492.80" arrivalSpeed="21.74" duration="94.00" routeLength="994.90" waitingTime="0.00" waitingCount="0" stopTime="0.00" timeLoss="49.11" rerouteNo="0" devices="tripinfo_westEastTop.17 ssm_westEastTop.17" vType="carCustom" speedFactor="0.96" vaporized=""/>
    <tripinfo id="southNorth.8" depart="111.00" departLane="southJunction_1" departPos="5.10" departSpeed="9.91" departDelay="0.03" arrival="178.00" arrivalLane="junctionNorth_0" arrivalPos="492.80" arrivalSpeed="21.66" duration="67.00" routeLength="995.01" waitingTime="9.00" waitingCount="1" stopTime="0.00" timeLoss="21.88" rerouteNo="0" devices="tripinfo_southNorth.8 ssm_southNorth.8" vType="carCustom" speedFactor="0.77" vaporized=""/>
    <tripinfo id="westEastBottom0.12" depart="99.00" departLane="westJunction_0" departPos="5.10" departSpeed="14.01" departDelay="0.24" arrival="179.00" arrivalLane="junctionEast_0" arrivalPos="492.80" arrivalSpeed="22.10" duration="80.00" routeLength="994.90" waitingTime="0.00" waitingCount="0" stopTime="0.00" timeLoss="34.32" rerouteNo="0" devices="tripinfo_westEastBottom0.12 ssm_westEastBottom0.12" vType="carCustom" speedFactor="1.04" vaporized=""/>
    <tripinfo id="westEastTop.18" depart="86.00" departLane="westJunction_1" departPos="5.10" departSpeed="9.67" departDelay="2.21" arrival="184.00" arrivalLane="junctionEast_1" arrivalPos="492.80" arrivalSpeed="21.02" duration="98.00" routeLength="994.90" waitingTime="0.00" waitingCount="0" stopTime="0.00" timeLoss="52.69" rerouteNo="0" devices="tripinfo_westEastTop.18 ssm_westEastTop.18" vType="carCustom" speedFactor="0.93" vaporized=""/>
    <tripinfo id="westEastBottom0.13" depart="104.00" departLane="westJunction_0" departPos="5.10" departSpeed="15.91" departDelay="0.96" arrival="184.00" arrivalLane="junctionEast_0" arrivalPos="492.80" arrivalSpeed="21.58" duration="80.00" routeLength="994.90" waitingTime="0.00" waitingCount="0" stopTime="0.00" timeLoss="34.81" rerouteNo="0" devices="tripinfo_westEastBottom0.13 ssm_westEastBottom0.13" vType="carCustom" speedFactor="1.12" vaporized=""/>
    <tripinfo id="southNorth.9" depart="113.00" departLane="southJunction_1" departPos="5.10" departSpeed="13.50" departDelay="1.76" arrival="188.00" arrivalLane="junctionNorth_0" arrivalPos="492.80" arrivalSpeed="21.40" duration="75.00" routeLength="995.01" waitingTime="5.00" waitingCount="1" stopTime="0.00" timeLoss="29.40" rerouteNo="0" devices="tripinfo_southNorth.9 ssm_southNorth.9" vType="carCustom" speedFactor="1.03" vaporized=""/>
    <tripinfo id="westEastTop.19" depart="89.00" departLane="westJunction_1" departPos="5.10" departSpeed="5.52" departDelay="3.94" arrival="189.00" arrivalLane="junctionEast_1" arrivalPos="492.80" arrivalSpeed="20.98" duration="100.00" routeLength="994.90" waitingTime="0.00" waitingCount="0" stopTime="0.00" timeLoss="55.07" rerouteNo="0" devices="tripinfo_westEastTop.19 ssm_westEastTop.19" vType="carCustom" speedFactor="0.80" vaporized=""/>
    <tripinfo id="westEastBottom0.14" depart="106.00" departLane="westJunction_0" departPos="5.10" departSpeed="13.45" departDelay="0.19" arrival="189.00" arrivalLane="junctionEast_0" arrivalPos="492.80" arrivalSpeed="21.15" duration="83.00" routeLength="994.90" waitingTime="0.00" waitingCount="0" stopTime="0.00" timeLoss="38.22" rerouteNo="0" devices="tripinfo_westEastBottom0.14 ssm_westEastBottom0.14" vType="carCustom" speedFactor="1.04" vaporized=""/>
    <tripinfo id="westEastTop.20" depart="95.00" departLane="westJunction_1" departPos="5.10" departSpeed="7.35" departDelay="0.51" arrival="195.00" arrivalLane="junctionEast_1" arrivalPos="492.80" arrivalSpeed="21.49" duration="100.00" routeLength="994.90" waitingTime="0.00" waitingCount="0" stopTime="0.00" timeLoss="54.49" rerouteNo="0" devices="tripinfo_westEastTop.20 ssm_westEastTop.20" vType="carCustom" speedFactor="0.91" vaporized=""/>
    <tripinfo id="southEast.5" depart="125.00" departLane="southJunction_0" departPos="5.10" departSpeed="2.80" departDelay="0.71" arrival="195.00" arrivalLane="junctionEast_0" arrivalPos="492.80" arrivalSpeed="21.42" duration="70.00" routeLength="989.53" waitingTime="0.00" waitingCount="0" stopTime="0.00" timeLoss="24.37" rerouteNo="0" devices="tripinfo_southEast.5 ssm_southEast.5" vType="carCustom" speedFactor="1.03" vaporized=""/>
    <tripinfo id="southNorth.10" depart="115.00" departLane="southJunction_1" departPos="5.10" departSpeed="9.64" departDelay="1.23" arrival="198.00" arrivalLane="junctionNorth_0" arrivalPos="492.80" arrivalSpeed="21.73" duration="83.00" routeLength="995.01" waitingTime="5.00" waitingCount="1" stopTime="0.00" timeLoss="38.00" rerouteNo="0" devices="tripinfo_southNorth.10 ssm_southNorth.10" vType="carCustom" speedFactor="0.98" vaporized=""/>
    <tripinfo id="westEastTop.21" depart="98.00" departLane="westJunction_1" departPos="5.10" departSpeed="6.15" departDelay="2.65" arrival="201.00" arrivalLane="junctionEast_1" arrivalPos="492.80" arrivalSpeed="21.42" duration="103.00" routeLength="994.90" waitingTime="3.00" waitingCount="1" stopTime="0.00" timeLoss="57.51" rerouteNo="0" devices="tripinfo_westEastTop.21 ssm_westEastTop.21" vType="carCustom" speedFactor="0.93" vaporized=""/>
    <tripinfo id="southEast.6" depart="144.00" departLane="southJunction_0" departPos="5.10" departSpeed="18.36" departDelay="0.56" arrival="207.00" arrivalLane="junctionEast_0" arrivalPos="492.80" arrivalSpeed="21.70" duration="63.00" routeLength="989.53" waitingTime="0.00" waitingCount="0" stopTime="0.00" timeLoss="17.19" rerouteNo="0" devices="tripinfo_southEast.6 ssm_southEast.6" vType="carCustom" speedFactor="0.98" vaporized=""/>
    <tripinfo id="southNorth.11" depart="119.00" departLane="southJunction_1" departPos="5.10" departSpeed="8.82" departDelay="0.94" arrival="208.00" arrivalLane="junctionNorth_0" arrivalPos="492.80" arrivalSpeed="21.35" duration="89.00" routeLength="995.01" waitingTime="7.00" waitingCount="2" stopTime="0.00" timeLoss="43.89" rerouteNo="0" devices="tripinfo_southNorth.11 ssm_southNorth.11" vType="carCustom" speedFactor="1.02" vaporized=""/>
    <tripinfo id="westEastTop.22" depart="101.00" departLane="westJunction_1" departPos="5.10" departSpeed="4.70" departDelay="5.54" arrival="212.00" arrivalLane="junctionEast_0" arrivalPos="492.80" arrivalSpeed="21.12" duration="111.00" routeLength="994.90" waitingTime="3.00" waitingCount="1" stopTime="0.00" timeLoss="66.10" rerouteNo="0" devices="tripinfo_westEastTop.22 ssm_westEastTop.22" vType="carCustom" speedFactor="1.00" vaporized=""/>
    <tripinfo id="westEastBottom0.15" depart="150.00" departLane="westJunction_0" departPos="5.10" departSpeed="22.22" departDelay="0.96" arrival="212.00" arrivalLane="junctionEast_1" arrivalPos="492.80" arrivalSpeed="22.12" duration="62.00" routeLength="994.90" waitingTime="0.00" waitingCount="0" stopTime="0.00" timeLoss="16.49" rerouteNo="0" devices="tripinfo_westEastBottom0.15 ssm_westEastBottom0.15" vType="carCustom" speedFactor="0.93" vaporized=""/>
    <tripinfo id="westEastTop.23" depart="104.00" departLane="westJunction_1" departPos="5.10" departSpeed="4.03" departDelay="0.67" arrival="218.00" arrivalLane="junctionEast_1" arrivalPos="492.80" arrivalSpeed="22.03" duration="114.00" routeLength="994.90" waitingTime="5.00" waitingCount="1" stopTime="0.00" timeLoss="68.81" rerouteNo="0" devices="tripinfo_westEastTop.23 ssm_westEastTop.23" vType="carCustom" speedFactor="1.07" vaporized=""/>
    <tripinfo id="southNorth.12" depart="133.00" departLane="southJunction_1" departPos="5.10" departSpeed="12.31" departDelay="0.84" arrival="218.00" arrivalLane="junctionNorth_0" arrivalPos="492.80" arrivalSpeed="22.19" duration="85.00" routeLength="995.01" waitingTime="7.00" waitingCount="2" stopTime="0.00" timeLoss="39.88" rerouteNo="0" devices="tripinfo_southNorth.12 ssm_southNorth.12" vType="carCustom" speedFactor="1.08" vaporized=""/>
    <tripinfo id="southEast.7" depart="154.00" departLane="southJunction_0" departPos="5.10" departSpeed="16.14" departDelay="0.53" arrival="219.00" arrivalLane="junctionEast_0" arrivalPos="492.80" arrivalSpeed="21.95" duration="65.00" routeLength="989.53" waitingTime="0.00" waitingCount="0" stopTime="0.00" timeLoss="18.64" rerouteNo="0" devices="tripinfo_southEast.7 ssm_southEast.7" vType="carCustom" speedFactor="0.85" vaporized=""/>
    <tripinfo id="westEastTop.24" depart="108.00" departLane="westJunction_1" departPos="5.10" departSpeed="4.25" departDelay="3.00" arrival="225.00" arrivalLane="junctionEast_1" arrivalPos="492.80" arrivalSpeed="22.06" duration="117.00" routeLength="994.90" waitingTime="7.00" waitingCount="2" stopTime="0.00" timeLoss="72.01" rerouteNo="0" devices="tripinfo_westEastTop.24 ssm_westEastTop.24" vType="carCustom" speedFactor="0.94" vaporized=""/>
    <tripinfo id="southEast.8" depart="156.00" departLane="southJunction_0" departPos="5.10" departSpeed="17.36" departDelay="1.02" arrival="226.00" arrivalLane="junctionEast_0" arrivalPos="492.80" arrivalSpeed="21.95" duration="70.00" routeLength="989.53" waitingTime="0.00" waitingCount="0" stopTime="0.00" timeLoss="23.53" rerouteNo="0" devices="tripinfo_southEast.8 ssm_southEast.8" vType="carCustom" speedFactor="0.77" vaporized=""/>