<?xml version="1.0" encoding="UTF-8"?>

<!-- generated on 2025-04-29 04:34:50 by Eclipse SUMO sumo Version 1.20.0
<configuration xmlns:xsi="http://www.w3.org/2001/XMLSchema-instance" xsi:noNamespaceSchemaLocation="http://sumo.dlr.de/xsd/sumoConfiguration.xsd">

    <input>
        <net-file value="nets/2lane_unprotected_right/2lane_unprotected_right.net.xml"/>
        <route-files value="nets/2lane_unprotected_right/2lane_unprotected_right.rou.xml"/>
    </input>

    <output>
        <tripinfo-output value="traces/transs50f0.5_s50_f1_random/0014_tripinfo.xml"/>
        <collision-output value="traces/transs50f0.5_s50_f1_random/0014_collisions.xml"/>
        <statistic-output value="traces/transs50f0.5_s50_f1_random/0014_statistics.xml"/>
    </output>

    <processing>
        <collision.action value="teleport"/>
        <collision.check-junctions value="true"/>
        <time-to-teleport value="-1"/>
        <waiting-time-memory value="1000"/>
        <max-depart-delay value="-1"/>
        <default.speeddev value="0.1"/>
    </processing>

    <report>
        <no-warnings value="true"/>
    </report>

    <ssm_device>
        <device.ssm.probability value="1.0"/>
        <device.ssm.measures value="BR"/>
        <device.ssm.file value="/Users/finn/Code/CausalKnowledgeTransfer-4-SafeRL/traces/transs50f0.5_s50_f1_random/0014_ssm.xml"/>
    </ssm_device>

    <traci_server>
        <remote-port value="62559"/>
    </traci_server>

    <random_number>
        <random value="true"/>
    </random_number>

</configuration>
-->

<tripinfos xmlns:xsi="http://www.w3.org/2001/XMLSchema-instance" xsi:noNamespaceSchemaLocation="http://sumo.dlr.de/xsd/tripinfo_file.xsd">
    <tripinfo id="westEastBottom0.0" depart="11.00" departLane="westJunction_0" departPos="5.10" departSpeed="22.22" departDelay="0.68" arrival="37.00" arrivalLane="junctionEast_0" arrivalPos="492.80" arrivalSpeed="10.51" duration="26.00" routeLength="994.90" waitingTime="0.00" waitingCount="0" stopTime="0.00" timeLoss="2.98" rerouteNo="0" devices="tripinfo_westEastBottom0.0 ssm_westEastBottom0.0" vType="carCustom" speedFactor="0.95" vaporized="teleport"/>
    <tripinfo id="westEastTop.0" depart="1.00" departLane="westJunction_1" departPos="5.10" departSpeed="22.22" departDelay="0.17" arrival="48.00" arrivalLane="junctionEast_0" arrivalPos="492.80" arrivalSpeed="21.20" duration="47.00" routeLength="994.90" waitingTime="0.00" waitingCount="0" stopTime="0.00" timeLoss="1.53" rerouteNo="0" devices="tripinfo_westEastTop.0 ssm_westEastTop.0" vType="carCustom" speedFactor="1.02" vaporized=""/>
    <tripinfo id="southEast.0" depart="5.00" departLane="southJunction_0" departPos="5.10" departSpeed="22.22" departDelay="0.24" arrival="57.00" arrivalLane="junctionEast_0" arrivalPos="492.80" arrivalSpeed="22.14" duration="52.00" routeLength="989.53" waitingTime="0.00" waitingCount="0" stopTime="0.00" timeLoss="5.98" rerouteNo="0" devices="tripinfo_southEast.0 ssm_southEast.0" vType="carCustom" speedFactor="1.10" vaporized=""/>
    <tripinfo id="westEastTop.1" depart="5.00" departLane="westJunction_1" departPos="5.10" departSpeed="21.76" departDelay="0.34" arrival="61.00" arrivalLane="junctionEast_1" arrivalPos="492.80" arrivalSpeed="21.28" duration="56.00" routeLength="994.90" waitingTime="5.00" waitingCount="1" stopTime="0.00" timeLoss="10.87" rerouteNo="0" devices="tripinfo_westEastTop.1 ssm_westEastTop.1" vType="carCustom" speedFactor="1.13" vaporized=""/>
    <tripinfo id="southEast.1" depart="9.00" departLane="southJunction_0" departPos="5.10" departSpeed="21.76" departDelay="0.03" arrival="62.00" arrivalLane="junctionEast_0" arrivalPos="492.80" arrivalSpeed="21.31" duration="53.00" routeLength="989.53" waitingTime="0.00" waitingCount="0" stopTime="0.00" timeLoss="7.21" rerouteNo="0" devices="tripinfo_southEast.1 ssm_southEast.1" vType="carCustom" speedFactor="0.95" vaporized=""/>
    <tripinfo id="westEastTop.2" depart="7.00" departLane="westJunction_1" departPos="5.10" departSpeed="21.22" departDelay="1.02" arrival="64.00" arrivalLane="junctionEast_1" arrivalPos="492.80" arrivalSpeed="21.84" duration="57.00" routeLength="994.90" waitingTime="0.00" waitingCount="0" stopTime="0.00" timeLoss="11.34" rerouteNo="0" devices="tripinfo_westEastTop.2 ssm_westEastTop.2" vType="carCustom" speedFactor="1.07" vaporized=""/>
    <tripinfo id="westEastTop.3" depart="9.00" departLane="westJunction_1" departPos="5.10" departSpeed="20.27" departDelay="2.63" arrival="66.00" arrivalLane="junctionEast_0" arrivalPos="492.80" arrivalSpeed="21.92" duration="57.00" routeLength="994.90" waitingTime="0.00" waitingCount="0" stopTime="0.00" timeLoss="11.58" rerouteNo="0" devices="tripinfo_westEastTop.3 ssm_westEastTop.3" vType="carCustom" speedFactor="1.05" vaporized=""/>
    <tripinfo id="westEastTop.4" depart="13.00" departLane="westJunction_1" departPos="5.10" departSpeed="19.27" departDelay="0.97" arrival="68.00" arrivalLane="junctionEast_0" arrivalPos="492.80" arrivalSpeed="21.03" duration="55.00" routeLength="994.90" waitingTime="0.00" waitingCount="0" stopTime="0.00" timeLoss="9.83" rerouteNo="0" devices="tripinfo_westEastTop.4 ssm_westEastTop.4" vType="carCustom" speedFactor="1.06" vaporized=""/>
    <tripinfo id="westEastTop.5" depart="18.00" departLane="westJunction_1" departPos="5.10" departSpeed="21.36" departDelay="0.97" arrival="76.00" arrivalLane="junctionEast_1" arrivalPos="492.80" arrivalSpeed="20.98" duration="58.00" routeLength="994.90" waitingTime="2.00" waitingCount="1" stopTime="0.00" timeLoss="12.59" rerouteNo="0" devices="tripinfo_westEastTop.5 ssm_westEastTop.5" vType="carCustom" speedFactor="1.11" vaporized=""/>
    <tripinfo id="westEastBottom0.1" depart="19.00" departLane="westJunction_0" departPos="5.10" departSpeed="21.22" departDelay="0.99" arrival="76.00" arrivalLane="junctionEast_0" arrivalPos="492.80" arrivalSpeed="20.99" duration="57.00" routeLength="994.90" waitingTime="0.00" waitingCount="0" stopTime="0.00" timeLoss="11.90" rerouteNo="0" devices="tripinfo_westEastBottom0.1 ssm_westEastBottom0.1" vType="carCustom" speedFactor="0.95" vaporized=""/>
    <tripinfo id="westEastTop.6" depart="20.00" departLane="westJunction_1" departPos="5.10" departSpeed="21.50" departDelay="1.97" arrival="78.00" arrivalLane="junctionEast_1" arrivalPos="492.80" arrivalSpeed="21.94" duration="58.00" routeLength="994.90" waitingTime="0.00" waitingCount="0" stopTime="0.00" timeLoss="12.86" rerouteNo="0" devices="tripinfo_westEastTop.6 ssm_westEastTop.6" vType="carCustom" speedFactor="1.04" vaporized=""/>
    <tripinfo id="westEastBottom0.2" depart="21.00" departLane="westJunction_0" departPos="5.10" departSpeed="21.50" departDelay="0.52" arrival="79.00" arrivalLane="junctionEast_0" arrivalPos="492.80" arrivalSpeed="22.06" duration="58.00" routeLength="994.90" waitingTime="0.00" waitingCount="0" stopTime="0.00" timeLoss="12.37" rerouteNo="0" devices="tripinfo_westEastBottom0.2 ssm_westEastBottom0.2" vType="carCustom" speedFactor="1.06" vaporized=""/>
    <tripinfo id="southNorth.0" depart="26.00" departLane="southJunction_1" departPos="5.10" departSpeed="22.22" departDelay="0.68" arrival="81.00" arrivalLane="junctionNorth_0" arrivalPos="492.80" arrivalSpeed="21.02" duration="55.00" routeLength="995.01" waitingTime="1.00" waitingCount="1" stopTime="0.00" timeLoss="10.15" rerouteNo="0" devices="tripinfo_southNorth.0 ssm_southNorth.0" vType="carCustom" speedFactor="1.00" vaporized=""/>
    <tripinfo id="westEastTop.7" depart="22.00" departLane="westJunction_1" departPos="5.10" departSpeed="21.14" departDelay="3.10" arrival="86.00" arrivalLane="junctionEast_0" arrivalPos="492.80" arrivalSpeed="21.41" duration="64.00" routeLength="994.90" waitingTime="1.00" waitingCount="1" stopTime="0.00" timeLoss="18.90" rerouteNo="0" devices="tripinfo_westEastTop.7 ssm_westEastTop.7" vType="carCustom" speedFactor="0.80" vaporized=""/>
    <tripinfo id="westEastBottom0.3" depart="23.00" departLane="westJunction_0" departPos="5.10" departSpeed="20.02" departDelay="0.30" arrival="88.00" arrivalLane="junctionEast_0" arrivalPos="492.80" arrivalSpeed="21.58" duration="65.00" routeLength="994.90" waitingTime="2.00" waitingCount="1" stopTime="0.00" timeLoss="20.10" rerouteNo="0" devices="tripinfo_westEastBottom0.3 ssm_westEastBottom0.3" vType="carCustom" speedFactor="0.91" vaporized=""/>
    <tripinfo id="westEastBottom0.4" depart="25.00" departLane="westJunction_0" departPos="5.10" departSpeed="19.16" departDelay="0.81" arrival="88.00" arrivalLane="junctionEast_1" arrivalPos="492.80" arrivalSpeed="21.14" duration="63.00" routeLength="994.90" waitingTime="0.00" waitingCount="0" stopTime="0.00" timeLoss="18.23" rerouteNo="0" devices="tripinfo_westEastBottom0.4 ssm_westEastBottom0.4" vType="carCustom" speedFactor="0.92" vaporized=""/>
    <tripinfo id="westEastBottom0.5" depart="33.00" departLane="westJunction_0" departPos="5.10" departSpeed="21.37" departDelay="0.08" arrival="91.00" arrivalLane="junctionEast_1" arrivalPos="492.80" arrivalSpeed="22.02" duration="58.00" routeLength="994.90" waitingTime="0.00" waitingCount="0" stopTime="0.00" timeLoss="12.49" rerouteNo="0" devices="tripinfo_westEastBottom0.5 ssm_westEastBottom0.5" vType="carCustom" speedFactor="0.86" vaporized=""/>
    <tripinfo id="westEastTop.8" depart="37.00" departLane="westJunction_1" departPos="5.10" departSpeed="21.13" departDelay="0.12" arrival="93.00" arrivalLane="junctionEast_0" arrivalPos="492.80" arrivalSpeed="21.44" duration="56.00" routeLength="994.90" waitingTime="0.00" waitingCount="0" stopTime="0.00" timeLoss="10.79" rerouteNo="0" devices="tripinfo_westEastTop.8 ssm_westEastTop.8" vType="carCustom" speedFactor="0.97" vaporized=""/>
    <tripinfo id="westEastBottom0.6" depart="51.00" departLane="westJunction_0" departPos="5.10" departSpeed="4.18" departDelay="0.77" arrival="101.00" arrivalLane="junctionEast_0" arrivalPos="492.80" arrivalSpeed="20.99" duration="50.00" routeLength="994.90" waitingTime="0.00" waitingCount="0" stopTime="0.00" timeLoss="5.01" rerouteNo="0" devices="tripinfo_westEastBottom0.6 ssm_westEastBottom0.6" vType="carCustom" speedFactor="1.00" vaporized=""/>
    <tripinfo id="westEastBottom0.7" depart="54.00" departLane="westJunction_0" departPos="5.10" departSpeed="9.91" departDelay="2.94" arrival="104.00" arrivalLane="junctionEast_0" arrivalPos="492.80" arrivalSpeed="21.52" duration="50.00" routeLength="994.90" waitingTime="0.00" waitingCount="0" stopTime="0.00" timeLoss="4.37" rerouteNo="0" devices="tripinfo_westEastBottom0.7 ssm_westEastBottom0.7" vType="carCustom" speedFactor="1.17" vaporized=""/>
    <tripinfo id="southEast.2" depart="45.00" departLane="southJunction_0" departPos="5.10" departSpeed="22.22" departDelay="0.21" arrival="113.00" arrivalLane="junctionEast_0" arrivalPos="492.80" arrivalSpeed="21.04" duration="68.00" routeLength="989.53" waitingTime="12.00" waitingCount="1" stopTime="0.00" timeLoss="22.40" rerouteNo="0" devices="tripinfo_southEast.2 ssm_southEast.2" vType="carCustom" speedFactor="0.99" vaporized=""/>
    <tripinfo id="westEastTop.9" depart="65.00" departLane="westJunction_1" departPos="5.10" departSpeed="7.17" departDelay="0.92" arrival="115.00" arrivalLane="junctionEast_1" arrivalPos="492.80" arrivalSpeed="21.34" duration="50.00" routeLength="994.90" waitingTime="0.00" waitingCount="0" stopTime="0.00" timeLoss="4.41" rerouteNo="0" devices="tripinfo_westEastTop.9 ssm_westEastTop.9" vType="carCustom" speedFactor="1.17" vaporized=""/>
    <tripinfo id="southEast.3" depart="61.00" departLane="southJunction_0" departPos="5.10" departSpeed="21.50" departDelay="0.85" arrival="116.00" arrivalLane="junctionEast_0" arrivalPos="492.80" arrivalSpeed="21.43" duration="55.00" routeLength="989.53" waitingTime="0.00" waitingCount="0" stopTime="0.00" timeLoss="8.40" rerouteNo="0" devices="tripinfo_southEast.3 ssm_southEast.3" vType="carCustom" speedFactor="1.02" vaporized=""/>
    <tripinfo id="westEastBottom0.9" depart="70.00" departLane="westJunction_0" departPos="5.10" departSpeed="21.21" departDelay="0.82" arrival="117.00" arrivalLane="junctionEast_1" arrivalPos="492.80" arrivalSpeed="22.06" duration="47.00" routeLength="994.90" waitingTime="0.00" waitingCount="0" stopTime="0.00" timeLoss="1.78" rerouteNo="0" devices="tripinfo_westEastBottom0.9 ssm_westEastBottom0.9" vType="carCustom" speedFactor="0.92" vaporized=""/>
    <tripinfo id="westEastBottom0.8" depart="64.00" departLane="westJunction_0" departPos="5.10" departSpeed="20.83" departDelay="0.49" arrival="118.00" arrivalLane="junctionEast_0" arrivalPos="492.80" arrivalSpeed="21.94" duration="54.00" routeLength="994.90" waitingTime="0.00" waitingCount="0" stopTime="0.00" timeLoss="8.65" rerouteNo="0" devices="tripinfo_westEastBottom0.8 ssm_westEastBottom0.8" vType="carCustom" speedFactor="0.99" vaporized=""/>
    <tripinfo id="southEast.4" depart="63.00" departLane="southJunction_0" departPos="5.10" departSpeed="22.07" departDelay="2.35" arrival="123.00" arrivalLane="junctionEast_0" arrivalPos="492.80" arrivalSpeed="21.47" duration="60.00" routeLength="989.53" waitingTime="3.00" waitingCount="1" stopTime="0.00" timeLoss="14.08" rerouteNo="0" devices="tripinfo_southEast.4 ssm_southEast.4" vType="carCustom" speedFactor="1.03" vaporized=""/>
    <tripinfo id="southEast.5" depart="65.00" departLane="southJunction_0" departPos="5.10" departSpeed="20.33" departDelay="2.73" arrival="126.00" arrivalLane="junctionEast_0" arrivalPos="492.80" arrivalSpeed="21.59" duration="61.00" routeLength="989.53" waitingTime="0.00" waitingCount="0" stopTime="0.00" timeLoss="15.16" rerouteNo="0" devices="tripinfo_southEast.5 ssm_southEast.5" vType="carCustom" speedFactor="0.99" vaporized=""/>
    <tripinfo id="westEastBottom0.10" depart="73.00" departLane="westJunction_0" departPos="5.10" departSpeed="22.17" departDelay="0.23" arrival="128.00" arrivalLane="junctionEast_1" arrivalPos="492.80" arrivalSpeed="21.72" duration="55.00" routeLength="994.90" waitingTime="0.00" waitingCount="0" stopTime="0.00" timeLoss="9.90" rerouteNo="0" devices="tripinfo_westEastBottom0.10 ssm_westEastBottom0.10" vType="carCustom" speedFactor="0.93" vaporized=""/>
    <tripinfo id="southEast.6" depart="67.00" departLane="southJunction_0" departPos="5.10" departSpeed="20.01" departDelay="3.79" arrival="129.00" arrivalLane="junctionEast_0" arrivalPos="492.80" arrivalSpeed="22.06" duration="62.00" routeLength="989.53" waitingTime="0.00" waitingCount="0" stopTime="0.00" timeLoss="15.57" rerouteNo="0" devices="tripinfo_southEast.6 ssm_southEast.6" vType="carCustom" speedFactor="1.28" vaporized=""/>
    <tripinfo id="southEast.7" depart="69.00" departLane="southJunction_0" departPos="5.10" departSpeed="20.12" departDelay="5.74" arrival="131.00" arrivalLane="junctionEast_0" arrivalPos="492.80" arrivalSpeed="21.00" duration="62.00" routeLength="989.53" waitingTime="0.00" waitingCount="0" stopTime="0.00" timeLoss="16.34" rerouteNo="0" devices="tripinfo_southEast.7 ssm_southEast.7" vType="carCustom" speedFactor="1.07" vaporized=""/>
    <tripinfo id="westEastTop.10" depart="77.00" departLane="westJunction_1" departPos="5.10" departSpeed="21.05" departDelay="0.27" arrival="131.00" arrivalLane="junctionEast_1" arrivalPos="492.80" arrivalSpeed="20.99" duration="54.00" routeLength="994.90" waitingTime="0.00" waitingCount="0" stopTime="0.00" timeLoss="8.29" rerouteNo="0" devices="tripinfo_westEastTop.10 ssm_westEastTop.10" vType="carCustom" speedFactor="0.91" vaporized=""/>
    <tripinfo id="southNorth.1" depart="83.00" departLane="southJunction_1" departPos="5.10" departSpeed="22.22" departDelay="0.54" arrival="132.00" arrivalLane="junctionNorth_0" arrivalPos="492.80" arrivalSpeed="22.02" duration="49.00" routeLength="995.01" waitingTime="0.00" waitingCount="0" stopTime="0.00" timeLoss="3.73" rerouteNo="0" devices="tripinfo_southNorth.1 ssm_southNorth.1" vType="carCustom" speedFactor="1.16" vaporized=""/>
    <tripinfo id="westEastTop.11" depart="79.00" departLane="westJunction_1" departPos="5.10" departSpeed="21.46" departDelay="0.66" arrival="133.00" arrivalLane="junctionEast_1" arrivalPos="492.80" arrivalSpeed="21.31" duration="54.00" routeLength="994.90" waitingTime="0.00" waitingCount="0" stopTime="0.00" timeLoss="8.69" rerouteNo="0" devices="tripinfo_westEastTop.11 ssm_westEastTop.11" vType="carCustom" speedFactor="1.03" vaporized=""/>
    <tripinfo id="southEast.8" depart="73.00" departLane="southJunction_0" departPos="5.10" departSpeed="19.09" departDelay="0.40" arrival="134.00" arrivalLane="junctionEast_0" arrivalPos="492.80" arrivalSpeed="21.51" duration="61.00" routeLength="989.53" waitingTime="0.00" waitingCount="0" stopTime="0.00" timeLoss="14.74" rerouteNo="0" devices="tripinfo_southEast.8 ssm_southEast.8" vType="carCustom" speedFactor="1.10" vaporized=""/>
    <tripinfo id="southNorth.2" depart="87.00" departLane="southJunction_1" departPos="5.10" departSpeed="21.71" departDelay="0.16" arrival="134.00" arrivalLane="junctionNorth_0" arrivalPos="492.80" arrivalSpeed="21.39" duration="47.00" routeLength="995.01" waitingTime="0.00" waitingCount="0" stopTime="0.00" timeLoss="2.20" rerouteNo="0" devices="tripinfo_southNorth.2 ssm_southNorth.2" vType="carCustom" speedFactor="0.87" vaporized=""/>
    <tripinfo id="southEast.9" depart="76.00" departLane="southJunction_0" departPos="5.10" departSpeed="21.29" departDelay="0.98" arrival="136.00" arrivalLane="junctionEast_0" arrivalPos="492.80" arrivalSpeed="21.21" duration="60.00" routeLength="989.53" waitingTime="0.00" waitingCount="0" stopTime="0.00" timeLoss="14.64" rerouteNo="0" devices="tripinfo_southEast.9 ssm_southEast.9" vType="carCustom" speedFactor="1.18" vaporized=""/>
    <tripinfo id="westEastTop.12" depart="83.00" departLane="westJunction_1" departPos="5.10" departSpeed="21.35" departDelay="0.59" arrival="140.00" arrivalLane="junctionEast_1" arrivalPos="492.80" arrivalSpeed="21.31" duration="57.00" routeLength="994.90" waitingTime="0.00" waitingCount="0" stopTime="0.00" timeLoss="11.47" rerouteNo="0" devices="tripinfo_westEastTop.12 ssm_westEastTop.12" vType="carCustom" speedFactor="0.98" vaporized=""/>
    <tripinfo id="southEast.10" depart="87.00" departLane="southJunction_0" departPos="5.10" departSpeed="21.33" departDelay="0.45" arrival="140.00" arrivalLane="junctionEast_0" arrivalPos="492.80" arrivalSpeed="21.09" duration="53.00" routeLength="989.53" waitingTime="0.00" waitingCount="0" stopTime="0.00" timeLoss="7.68" rerouteNo="0" devices="tripinfo_southEast.10 ssm_southEast.10" vType="carCustom" speedFactor="1.03" vaporized=""/>
    <tripinfo id="westEastTop.13" depart="87.00" departLane="westJunction_1" departPos="5.10" departSpeed="21.69" departDelay="0.93" arrival="142.00" arrivalLane="junctionEast_1" arrivalPos="492.80" arrivalSpeed="21.19" duration="55.00" routeLength="994.90" waitingTime="0.00" waitingCount="0" stopTime="0.00" timeLoss="9.81" rerouteNo="0" devices="tripinfo_westEastTop.13 ssm_westEastTop.13" vType="carCustom" speedFactor="0.98" vaporized=""/>
    <tripinfo id="westEastBottom0.11" depart="90.00" departLane="westJunction_0" departPos="5.10" departSpeed="6.07" departDelay="0.84" arrival="143.00" arrivalLane="junctionEast_0" arrivalPos="492.80" arrivalSpeed="21.05" duration="53.00" routeLength="994.90" waitingTime="0.00" waitingCount="0" stopTime="0.00" timeLoss="7.55" rerouteNo="0" devices="tripinfo_westEastBottom0.11 ssm_westEastBottom0.11" vType="carCustom" speedFactor="0.82" vaporized=""/>
    <tripinfo id="westEastTop.14" depart="92.00" departLane="westJunction_1" departPos="5.10" departSpeed="21.98" departDelay="0.86" arrival="144.00" arrivalLane="junctionEast_1" arrivalPos="492.80" arrivalSpeed="21.26" duration="52.00" routeLength="994.90" waitingTime="0.00" waitingCount="0" stopTime="0.00" timeLoss="7.12" rerouteNo="0" devices="tripinfo_westEastTop.14 ssm_westEastTop.14" vType="carCustom" speedFactor="1.06" vaporized=""/>
    <tripinfo id="westEastTop.15" depart="94.00" departLane="westJunction_1" departPos="5.10" departSpeed="21.90" departDelay="0.66" arrival="147.00" arrivalLane="junctionEast_0" arrivalPos="492.80" arrivalSpeed="21.84" duration="53.00" routeLength="994.90" waitingTime="0.00" waitingCount="0" stopTime="0.00" timeLoss="7.35" rerouteNo="0" devices="tripinfo_westEastTop.15 ssm_westEastTop.15" vType="carCustom" speedFactor="0.78" vaporized=""/>
    <tripinfo id="southNorth.3" depart="99.00" departLane="southJunction_1" departPos="5.10" departSpeed="21.36" departDelay="0.93" arrival="147.00" arrivalLane="junctionNorth_0" arrivalPos="492.80" arrivalSpeed="22.04" duration="48.00" routeLength="995.01" waitingTime="0.00" waitingCount="0" stopTime="0.00" timeLoss="2.37" rerouteNo="0" devices="tripinfo_southNorth.3 ssm_southNorth.3" vType="carCustom" speedFactor="0.87" vaporized=""/>
    <tripinfo id="southNorth.4" depart="101.00" departLane="southJunction_1" departPos="5.10" departSpeed="21.28" departDelay="1.72" arrival="149.00" arrivalLane="junctionNorth_0" arrivalPos="492.80" arrivalSpeed="21.86" duration="48.00" routeLength="995.01" waitingTime="0.00" waitingCount="0" stopTime="0.00" timeLoss="2.73" rerouteNo="0" devices="tripinfo_southNorth.4 ssm_southNorth.4" vType="carCustom" speedFactor="1.03" vaporized=""/>
    <tripinfo id="westEastTop.16" depart="99.00" departLane="westJunction_1" departPos="5.10" departSpeed="20.48" departDelay="0.56" arrival="155.00" arrivalLane="junctionEast_0" arrivalPos="492.80" arrivalSpeed="21.43" duration="56.00" routeLength="994.90" waitingTime="0.00" waitingCount="0" stopTime="0.00" timeLoss="10.56" rerouteNo="0" devices="tripinfo_westEastTop.16 ssm_westEastTop.16" vType="carCustom" speedFactor="1.00" vaporized=""/>
    <tripinfo id="westEastTop.17" depart="103.00" departLane="westJunction_1" departPos="5.10" departSpeed="21.93" departDelay="0.65" arrival="156.00" arrivalLane="junctionEast_0" arrivalPos="492.80" arrivalSpeed="21.97" duration="53.00" routeLength="994.90" waitingTime="0.00" waitingCount="0" stopTime="0.00" timeLoss="8.16" rerouteNo="0" devices="tripinfo_westEastTop.17 ssm_westEastTop.17" vType="carCustom" speedFactor="1.11" vaporized=""/>
    <tripinfo id="westEastTop.18" depart="106.00" departLane="westJunction_1" departPos="5.10" departSpeed="20.95" departDelay="0.48" arrival="159.00" arrivalLane="junctionEast_0" arrivalPos="492.80" arrivalSpeed="21.35" duration="53.00" routeLength="994.90" waitingTime="0.00" waitingCount="0" stopTime="0.00" timeLoss="7.59" rerouteNo="0" devices="tripinfo_westEastTop.18 ssm_westEastTop.18" vType="carCustom" speedFactor="0.95" vaporized=""/>
    <tripinfo id="westEastTop.19" depart="108.00" departLane="westJunction_1" departPos="5.10" departSpeed="21.24" departDelay="2.27" arrival="161.00" arrivalLane="junctionEast_0" arrivalPos="492.80" arrivalSpeed="21.03" duration="53.00" routeLength="994.90" waitingTime="0.00" waitingCount="0" stopTime="0.00" timeLoss="7.97" rerouteNo="0" devices="tripinfo_westEastTop.19 ssm_westEastTop.19" vType="carCustom" speedFactor="0.96" vaporized=""/>
    <tripinfo id="southEast.11" depart="113.00" departLane="southJunction_0" departPos="5.10" departSpeed="6.18" departDelay="0.50" arrival="168.00" arrivalLane="junctionEast_0" arrivalPos="492.80" arrivalSpeed="21.13" duration="55.00" routeLength="989.53" waitingTime="0.00" waitingCount="0" stopTime="0.00" timeLoss="9.13" rerouteNo="0" devices="tripinfo_southEast.11 ssm_southEast.11" vType="carCustom" speedFactor="0.94" vaporized=""/>
    <tripinfo id="westEastTop.20" depart="116.00" departLane="westJunction_1" departPos="5.10" departSpeed="20.50" departDelay="0.83" arrival="168.00" arrivalLane="junctionEast_1" arrivalPos="492.80" arrivalSpeed="21.25" duration="52.00" routeLength="994.90" waitingTime="0.00" waitingCount="0" stopTime="0.00" timeLoss="6.79" rerouteNo="0" devices="tripinfo_westEastTop.20 ssm_westEastTop.20" vType="carCustom" speedFactor="1.05" vaporized=""/>
    <tripinfo id="westEastTop.21" depart="118.00" departLane="westJunction_1" departPos="5.10" departSpeed="21.72" departDelay="0.79" arrival="170.00" arrivalLane="junctionEast_1" arrivalPos="492.80" arrivalSpeed="21.00" duration="52.00" routeLength="994.90" waitingTime="0.00" waitingCount="0" stopTime="0.00" timeLoss="7.15" rerouteNo="0" devices="tripinfo_westEastTop.21 ssm_westEastTop.21" vType="carCustom" speedFactor="1.24" vaporized=""/>
    <tripinfo id="southNorth.5" depart="121.00" departLane="southJunction_1" departPos="5.10" departSpeed="18.23" departDelay="0.62" arrival="173.00" arrivalLane="junctionNorth_0" arrivalPos="492.80" arrivalSpeed="21.40" duration="52.00" routeLength="995.01" waitingTime="0.00" waitingCount="0" stopTime="0.00" timeLoss="6.96" rerouteNo="0" devices="tripinfo_southNorth.5 ssm_southNorth.5" vType="carCustom" speedFactor="0.85" vaporized=""/>
    <tripinfo id="southNorth.6" depart="123.00" departLane="southJunction_1" departPos="5.10" departSpeed="21.52" departDelay="0.91" arrival="176.00" arrivalLane="junctionNorth_0" arrivalPos="492.80" arrivalSpeed="21.14" duration="53.00" routeLength="995.01" waitingTime="0.00" waitingCount="0" stopTime="0.00" timeLoss="7.36" rerouteNo="0" devices="tripinfo_southNorth.6 ssm_southNorth.6" vType="carCustom" speedFactor="1.17" vaporized=""/>
    <tripinfo id="westEastTop.22" depart="122.00" departLane="westJunction_1" departPos="5.10" departSpeed="21.05" departDelay="0.17" arrival="180.00" arrivalLane="junctionEast_0" arrivalPos="492.80" arrivalSpeed="21.79" duration="58.00" routeLength="994.90" waitingTime="1.00" waitingCount="1" stopTime="0.00" timeLoss="13.02" rerouteNo="0" devices="tripinfo_westEastTop.22 ssm_westEastTop.22" vType="carCustom" speedFactor="0.95" vaporized=""/>
    <tripinfo id="westEastTop.23" depart="124.00" departLane="westJunction_1" departPos="5.10" departSpeed="21.07" departDelay="1.55" arrival="182.00" arrivalLane="junctionEast_1" arrivalPos="492.80" arrivalSpeed="21.07" duration="58.00" routeLength="994.90" waitingTime="0.00" waitingCount="0" stopTime="0.00" timeLoss="12.96" rerouteNo="0" devices="tripinfo_westEastTop.23 ssm_westEastTop.23" vType="carCustom" speedFactor="1.04" vaporized=""/>
    <tripinfo id="southNorth.7" depart="129.00" departLane="southJunction_1" departPos="5.10" departSpeed="21.37" departDelay="0.93" arrival="185.00" arrivalLane="junctionNorth_0" arrivalPos="492.80" arrivalSpeed="21.77" duration="56.00" routeLength="995.01" waitingTime="0.00" waitingCount="0" stopTime="0.00" timeLoss="10.29" rerouteNo="0" devices="tripinfo_southNorth.7 ssm_southNorth.7" vType="carCustom" speedFactor="1.05" vaporized=""/>
    <tripinfo id="southNorth.8" depart="132.00" departLane="southJunction_1" departPos="5.10" departSpeed="21.43" departDelay="0.72" arrival="187.00" arrivalLane="junctionNorth_0" arrivalPos="492.80" arrivalSpeed="21.27" duration="55.00" routeLength="995.01" waitingTime="0.00" waitingCount="0" stopTime="0.00" timeLoss="9.64" rerouteNo="0" devices="tripinfo_southNorth.8 ssm_southNorth.8" vType="carCustom" speedFactor="0.99" vaporized=""/>
    <tripinfo id="southEast.12" depart="134.00" departLane="southJunction_0" departPos="5.10" departSpeed="21.72" departDelay="0.93" arrival="187.00" arrivalLane="junctionEast_0" arrivalPos="492.80" arrivalSpeed="21.12" duration="53.00" routeLength="989.53" waitingTime="0.00" waitingCount="0" stopTime="0.00" timeLoss="7.62" rerouteNo="0" devices="tripinfo_southEast.12 ssm_southEast.12" vType="carCustom" speedFactor="0.95" vaporized=""/>
    <tripinfo id="westEastTop.24" depart="131.00" departLane="westJunction_1" departPos="5.10" departSpeed="21.95" departDelay="0.25" arrival="190.00" arrivalLane="junctionEast_0" arrivalPos="492.80" arrivalSpeed="21.74" duration="59.00" routeLength="994.90" waitingTime="1.00" waitingCount="1" stopTime="0.00" timeLoss="14.15" rerouteNo="0" devices="tripinfo_westEastTop.24 ssm_westEastTop.24" vType="carCustom" speedFactor="0.98" vaporized=""/>
    <tripinfo id="westEastBottom0.12" depart="140.00" departLane="westJunction_0" departPos="5.10" departSpeed="22.22" departDelay="0.05" arrival="193.00" arrivalLane="junctionEast_0" arrivalPos="492.80" arrivalSpeed="21.01" duration="53.00" routeLength="994.90" waitingTime="0.00" waitingCount="0" stopTime="0.00" timeLoss="7.46" rerouteNo="0" devices="tripinfo_westEastBottom0.12 ssm_westEastBottom0.12" vType="carCustom" speedFactor="1.20" vaporized=""/>
    <tripinfo id="westEastTop.25" depart="143.00" departLane="westJunction_1" departPos="5.10" departSpeed="21.16" departDelay="0.29" arrival="200.00" arrivalLane="junctionEast_0" arrivalPos="492.80" arrivalSpeed="21.33" duration="57.00" routeLength="994.90" waitingTime="1.00" waitingCount="1" stopTime="0.00" timeLoss="11.34" rerouteNo="0" devices="tripinfo_westEastTop.25 ssm_westEastTop.25" vType="carCustom" speedFactor="0.99" vaporized=""/>
    <tripinfo id="westEastBottom0.13" depart="148.00" departLane="westJunction_0" departPos="5.10" departSpeed="22.06" departDelay="0.16" arrival="202.00" arrivalLane="junctionEast_0" arrivalPos="492.80" arrivalSpeed="22.20" duration="54.00" routeLength="994.90" waitingTime="0.00" waitingCount="0" stopTime="0.00" timeLoss="8.51" rerouteNo="0" devices="tripinfo_westEastBottom0.13 ssm_westEastBottom0.13" vType="carCustom" speedFactor="0.71" vaporized=""/>
    <tripinfo id="westEastTop.26" depart="153.00" departLane="westJunction_1" departPos="5.10" departSpeed="22.17" departDelay="0.39" arrival="204.00" arrivalLane="junctionEast_1" arrivalPos="492.80" arrivalSpeed="22.18" duration="51.00" routeLength="994.90" waitingTime="0.00" waitingCount="0" stopTime="0.00" timeLoss="5.74" rerouteNo="0" devices="tripinfo_westEastTop.26 ssm_westEastTop.26" vType="carCustom" speedFactor="1.06" vaporized=""/>