<?xml version="1.0" encoding="UTF-8"?>

<!-- generated on 2025-04-29 04:40:57 by Eclipse SUMO sumo Version 1.20.0
<configuration xmlns:xsi="http://www.w3.org/2001/XMLSchema-instance" xsi:noNamespaceSchemaLocation="http://sumo.dlr.de/xsd/sumoConfiguration.xsd">

    <input>
        <net-file value="nets/2lane_unprotected_right/2lane_unprotected_right.net.xml"/>
        <route-files value="nets/2lane_unprotected_right/2lane_unprotected_right.rou.xml"/>
    </input>

    <output>
        <tripinfo-output value="traces/transs50f0.5_s50_f1_random/0021_tripinfo.xml"/>
        <collision-output value="traces/transs50f0.5_s50_f1_random/0021_collisions.xml"/>
        <statistic-output value="traces/transs50f0.5_s50_f1_random/0021_statistics.xml"/>
    </output>

    <processing>
        <collision.action value="teleport"/>
        <collision.check-junctions value="true"/>
        <time-to-teleport value="-1"/>
        <waiting-time-memory value="1000"/>
        <max-depart-delay value="-1"/>
        <default.speeddev value="0.1"/>
    </processing>

    <report>
        <no-warnings value="true"/>
    </report>

    <ssm_device>
        <device.ssm.probability value="1.0"/>
        <device.ssm.measures value="BR"/>
        <device.ssm.file value="/Users/finn/Code/CausalKnowledgeTransfer-4-SafeRL/traces/transs50f0.5_s50_f1_random/0021_ssm.xml"/>
    </ssm_device>

    <traci_server>
        <remote-port value="62644"/>
    </traci_server>

    <random_number>
        <random value="true"/>
    </random_number>

</configuration>
-->

<tripinfos xmlns:xsi="http://www.w3.org/2001/XMLSchema-instance" xsi:noNamespaceSchemaLocation="http://sumo.dlr.de/xsd/tripinfo_file.xsd">
    <tripinfo id="southEast.5" depart="24.00" departLane="southJunction_0" departPos="5.10" departSpeed="5.38" departDelay="4.05" arrival="97.00" arrivalLane="junctionEast_0" arrivalPos="492.80" arrivalSpeed="6.00" duration="73.00" routeLength="989.53" waitingTime="0.00" waitingCount="0" stopTime="0.00" timeLoss="13.21" rerouteNo="0" devices="tripinfo_southEast.5 ssm_southEast.5" vType="carCustom" speedFactor="1.10" vaporized="teleport"/>
    <tripinfo id="southEast.9" depart="45.00" departLane="southJunction_0" departPos="5.10" departSpeed="7.63" departDelay="0.72" arrival="119.00" arrivalLane="junctionEast_0" arrivalPos="492.80" arrivalSpeed="3.09" duration="74.00" routeLength="989.53" waitingTime="0.00" waitingCount="0" stopTime="0.00" timeLoss="13.44" rerouteNo="0" devices="tripinfo_southEast.9 ssm_southEast.9" vType="carCustom" speedFactor="0.85" vaporized="teleport"/>
    <tripinfo id="westEastTop.0" depart="2.00" departLane="westJunction_1" departPos="5.10" departSpeed="8.33" departDelay="0.14" arrival="131.00" arrivalLane="junctionEast_0" arrivalPos="492.80" arrivalSpeed="7.22" duration="129.00" routeLength="994.90" waitingTime="0.00" waitingCount="0" stopTime="0.00" timeLoss="9.23" rerouteNo="0" devices="tripinfo_westEastTop.0 ssm_westEastTop.0" vType="carCustom" speedFactor="1.10" vaporized=""/>
    <tripinfo id="southEast.0" depart="4.00" departLane="southJunction_0" departPos="5.10" departSpeed="8.33" departDelay="0.47" arrival="137.00" arrivalLane="junctionEast_0" arrivalPos="492.80" arrivalSpeed="7.58" duration="133.00" routeLength="989.53" waitingTime="0.00" waitingCount="0" stopTime="0.00" timeLoss="12.95" rerouteNo="0" devices="tripinfo_southEast.0 ssm_southEast.0" vType="carCustom" speedFactor="1.03" vaporized=""/>
    <tripinfo id="southEast.1" depart="7.00" departLane="southJunction_0" departPos="5.10" departSpeed="7.43" departDelay="3.02" arrival="142.00" arrivalLane="junctionEast_0" arrivalPos="492.80" arrivalSpeed="7.95" duration="135.00" routeLength="989.53" waitingTime="0.00" waitingCount="0" stopTime="0.00" timeLoss="15.13" rerouteNo="0" devices="tripinfo_southEast.1 ssm_southEast.1" vType="carCustom" speedFactor="1.06" vaporized=""/>
    <tripinfo id="westEastTop.1" depart="14.00" departLane="westJunction_1" departPos="5.10" departSpeed="7.18" departDelay="0.77" arrival="143.00" arrivalLane="junctionEast_1" arrivalPos="492.80" arrivalSpeed="7.65" duration="129.00" routeLength="994.90" waitingTime="0.00" waitingCount="0" stopTime="0.00" timeLoss="9.06" rerouteNo="0" devices="tripinfo_westEastTop.1 ssm_westEastTop.1" vType="carCustom" speedFactor="0.91" vaporized=""/>
    <tripinfo id="westEastBottom0.0" depart="13.00" departLane="westJunction_0" departPos="5.10" departSpeed="8.33" departDelay="0.56" arrival="147.00" arrivalLane="junctionEast_0" arrivalPos="492.80" arrivalSpeed="7.08" duration="134.00" routeLength="994.90" waitingTime="0.00" waitingCount="0" stopTime="0.00" timeLoss="13.76" rerouteNo="0" devices="tripinfo_westEastBottom0.0 ssm_westEastBottom0.0" vType="carCustom" speedFactor="1.07" vaporized=""/>
    <tripinfo id="southEast.2" depart="13.00" departLane="southJunction_0" departPos="5.10" departSpeed="6.25" departDelay="0.95" arrival="152.00" arrivalLane="junctionEast_0" arrivalPos="492.80" arrivalSpeed="7.67" duration="139.00" routeLength="989.53" waitingTime="0.00" waitingCount="0" stopTime="0.00" timeLoss="19.30" rerouteNo="0" devices="tripinfo_southEast.2 ssm_southEast.2" vType="carCustom" speedFactor="1.00" vaporized=""/>
    <tripinfo id="westEastBottom0.5" depart="90.00" departLane="westJunction_0" departPos="5.10" departSpeed="7.18" departDelay="0.87" arrival="155.00" arrivalLane="junctionEast_0" arrivalPos="492.80" arrivalSpeed="7.61" duration="65.00" routeLength="994.90" waitingTime="0.00" waitingCount="0" stopTime="0.00" timeLoss="4.60" rerouteNo="0" devices="tripinfo_westEastBottom0.5 ssm_westEastBottom0.5" vType="carCustom" speedFactor="1.00" vaporized="teleport"/>
    <tripinfo id="southEast.3" depart="19.00" departLane="southJunction_0" departPos="5.10" departSpeed="7.45" departDelay="0.16" arrival="157.00" arrivalLane="junctionEast_0" arrivalPos="492.80" arrivalSpeed="7.10" duration="138.00" routeLength="989.53" waitingTime="0.00" waitingCount="0" stopTime="0.00" timeLoss="18.38" rerouteNo="0" devices="tripinfo_southEast.3 ssm_southEast.3" vType="carCustom" speedFactor="1.05" vaporized=""/>
    <tripinfo id="southEast.4" depart="21.00" departLane="southJunction_0" departPos="5.10" departSpeed="8.05" departDelay="1.37" arrival="158.00" arrivalLane="junctionEast_1" arrivalPos="492.80" arrivalSpeed="8.04" duration="137.00" routeLength="989.53" waitingTime="0.00" waitingCount="0" stopTime="0.00" timeLoss="17.31" rerouteNo="0" devices="tripinfo_southEast.4 ssm_southEast.4" vType="carCustom" speedFactor="1.03" vaporized=""/>
    <tripinfo id="westEastBottom0.1" depart="30.00" departLane="westJunction_0" departPos="5.10" departSpeed="7.31" departDelay="0.65" arrival="162.00" arrivalLane="junctionEast_0" arrivalPos="492.80" arrivalSpeed="7.06" duration="132.00" routeLength="994.90" waitingTime="0.00" waitingCount="0" stopTime="0.00" timeLoss="12.11" rerouteNo="0" devices="tripinfo_westEastBottom0.1 ssm_westEastBottom0.1" vType="carCustom" speedFactor="0.89" vaporized=""/>
    <tripinfo id="westEastTop.2" depart="32.00" departLane="westJunction_1" departPos="5.10" departSpeed="7.91" departDelay="0.39" arrival="164.00" arrivalLane="junctionEast_1" arrivalPos="492.80" arrivalSpeed="8.23" duration="132.00" routeLength="994.90" waitingTime="0.00" waitingCount="0" stopTime="0.00" timeLoss="11.86" rerouteNo="0" devices="tripinfo_westEastTop.2 ssm_westEastTop.2" vType="carCustom" speedFactor="0.89" vaporized=""/>
    <tripinfo id="southNorth.0" depart="34.00" departLane="southJunction_1" departPos="5.10" departSpeed="7.09" departDelay="0.44" arrival="164.00" arrivalLane="junctionNorth_0" arrivalPos="492.80" arrivalSpeed="8.10" duration="130.00" routeLength="995.01" waitingTime="0.00" waitingCount="0" stopTime="0.00" timeLoss="9.93" rerouteNo="0" devices="tripinfo_southNorth.0 ssm_southNorth.0" vType="carCustom" speedFactor="1.09" vaporized=""/>
    <tripinfo id="southEast.6" depart="27.00" departLane="southJunction_0" departPos="5.10" departSpeed="5.54" departDelay="3.51" arrival="167.00" arrivalLane="junctionEast_0" arrivalPos="492.80" arrivalSpeed="7.84" duration="140.00" routeLength="989.53" waitingTime="0.00" waitingCount="0" stopTime="0.00" timeLoss="20.86" rerouteNo="0" devices="tripinfo_southEast.6 ssm_southEast.6" vType="carCustom" speedFactor="1.25" vaporized=""/>
    <tripinfo id="westEastBottom0.2" depart="32.00" departLane="westJunction_0" departPos="5.10" departSpeed="7.33" departDelay="0.21" arrival="173.00" arrivalLane="junctionEast_0" arrivalPos="492.80" arrivalSpeed="7.95" duration="141.00" routeLength="994.90" waitingTime="2.00" waitingCount="1" stopTime="0.00" timeLoss="21.01" rerouteNo="0" devices="tripinfo_westEastBottom0.2 ssm_westEastBottom0.2" vType="carCustom" speedFactor="1.02" vaporized=""/>
    <tripinfo id="southNorth.1" depart="38.00" departLane="southJunction_1" departPos="5.10" departSpeed="7.34" departDelay="0.81" arrival="176.00" arrivalLane="junctionNorth_0" arrivalPos="492.80" arrivalSpeed="7.37" duration="138.00" routeLength="995.01" waitingTime="2.00" waitingCount="1" stopTime="0.00" timeLoss="17.93" rerouteNo="0" devices="tripinfo_southNorth.1 ssm_southNorth.1" vType="carCustom" speedFactor="1.02" vaporized=""/>
    <tripinfo id="southEast.7" depart="30.00" departLane="southJunction_0" departPos="5.10" departSpeed="6.03" departDelay="3.83" arrival="178.00" arrivalLane="junctionEast_0" arrivalPos="492.80" arrivalSpeed="8.17" duration="148.00" routeLength="989.53" waitingTime="2.00" waitingCount="1" stopTime="0.00" timeLoss="28.05" rerouteNo="0" devices="tripinfo_southEast.7 ssm_southEast.7" vType="carCustom" speedFactor="0.92" vaporized=""/>
    <tripinfo id="southEast.8" depart="41.00" departLane="southJunction_0" departPos="5.10" departSpeed="6.79" departDelay="0.17" arrival="182.00" arrivalLane="junctionEast_1" arrivalPos="492.80" arrivalSpeed="7.86" duration="141.00" routeLength="989.53" waitingTime="0.00" waitingCount="0" stopTime="0.00" timeLoss="21.41" rerouteNo="0" devices="tripinfo_southEast.8 ssm_southEast.8" vType="carCustom" speedFactor="0.95" vaporized=""/>
    <tripinfo id="westEastTop.3" depart="46.00" departLane="westJunction_1" departPos="5.10" departSpeed="7.78" departDelay="0.89" arrival="183.00" arrivalLane="junctionEast_0" arrivalPos="492.80" arrivalSpeed="7.78" duration="137.00" routeLength="994.90" waitingTime="1.00" waitingCount="1" stopTime="0.00" timeLoss="16.88" rerouteNo="0" devices="tripinfo_westEastTop.3 ssm_westEastTop.3" vType="carCustom" speedFactor="0.89" vaporized=""/>
    <tripinfo id="southNorth.2" depart="41.00" departLane="southJunction_1" departPos="5.10" departSpeed="6.12" departDelay="1.17" arrival="185.00" arrivalLane="junctionNorth_0" arrivalPos="492.80" arrivalSpeed="8.02" duration="144.00" routeLength="995.01" waitingTime="5.00" waitingCount="1" stopTime="0.00" timeLoss="23.74" rerouteNo="0" devices="tripinfo_southNorth.2 ssm_southNorth.2" vType="carCustom" speedFactor="1.12" vaporized=""/>
    <tripinfo id="westEastBottom0.3" depart="51.00" departLane="westJunction_0" departPos="5.10" departSpeed="8.10" departDelay="0.95" arrival="188.00" arrivalLane="junctionEast_0" arrivalPos="492.80" arrivalSpeed="8.32" duration="137.00" routeLength="994.90" waitingTime="0.00" waitingCount="0" stopTime="0.00" timeLoss="16.80" rerouteNo="0" devices="tripinfo_westEastBottom0.3 ssm_westEastBottom0.3" vType="carCustom" speedFactor="0.98" vaporized=""/>
    <tripinfo id="southNorth.3" depart="44.00" departLane="southJunction_1" departPos="5.10" departSpeed="5.34" departDelay="2.46" arrival="190.00" arrivalLane="junctionNorth_0" arrivalPos="492.80" arrivalSpeed="7.69" duration="146.00" routeLength="995.01" waitingTime="0.00" waitingCount="0" stopTime="0.00" timeLoss="26.02" rerouteNo="0" devices="tripinfo_southNorth.3 ssm_southNorth.3" vType="carCustom" speedFactor="1.04" vaporized=""/>
    <tripinfo id="westEastTop.4" depart="48.00" departLane="westJunction_1" departPos="5.10" departSpeed="7.64" departDelay="2.17" arrival="193.00" arrivalLane="junctionEast_0" arrivalPos="492.80" arrivalSpeed="8.07" duration="145.00" routeLength="994.90" waitingTime="4.00" waitingCount="1" stopTime="0.00" timeLoss="25.11" rerouteNo="0" devices="tripinfo_westEastTop.4 ssm_westEastTop.4" vType="carCustom" speedFactor="0.95" vaporized=""/>
    <tripinfo id="southNorth.4" depart="47.00" departLane="southJunction_1" departPos="5.10" departSpeed="4.32" departDelay="4.41" arrival="195.00" arrivalLane="junctionNorth_0" arrivalPos="492.80" arrivalSpeed="7.11" duration="148.00" routeLength="995.01" waitingTime="1.00" waitingCount="1" stopTime="0.00" timeLoss="28.35" rerouteNo="0" devices="tripinfo_southNorth.4 ssm_southNorth.4" vType="carCustom" speedFactor="0.98" vaporized=""/>
    <tripinfo id="westEastTop.5" depart="51.00" departLane="westJunction_1" departPos="5.10" departSpeed="4.52" departDelay="2.80" arrival="200.00" arrivalLane="junctionEast_0" arrivalPos="492.80" arrivalSpeed="7.35" duration="149.00" routeLength="994.90" waitingTime="5.00" waitingCount="1" stopTime="0.00" timeLoss="29.45" rerouteNo="0" devices="tripinfo_westEastTop.5 ssm_westEastTop.5" vType="carCustom" speedFactor="1.12" vaporized=""/>
    <tripinfo id="southNorth.5" depart="65.00" departLane="southJunction_1" departPos="5.10" departSpeed="6.11" departDelay="0.36" arrival="205.00" arrivalLane="junctionNorth_0" arrivalPos="492.80" arrivalSpeed="7.58" duration="140.00" routeLength="995.01" waitingTime="4.00" waitingCount="1" stopTime="0.00" timeLoss="19.81" rerouteNo="0" devices="tripinfo_southNorth.5 ssm_southNorth.5" vType="carCustom" speedFactor="0.84" vaporized=""/>
    <tripinfo id="westEastTop.6" depart="55.00" departLane="westJunction_1" departPos="5.10" departSpeed="4.74" departDelay="4.29" arrival="210.00" arrivalLane="junctionEast_0" arrivalPos="492.80" arrivalSpeed="8.12" duration="155.00" routeLength="994.90" waitingTime="7.00" waitingCount="2" stopTime="0.00" timeLoss="34.74" rerouteNo="0" devices="tripinfo_westEastTop.6 ssm_westEastTop.6" vType="carCustom" speedFactor="0.95" vaporized=""/>
    <tripinfo id="southNorth.6" depart="71.00" departLane="southJunction_1" departPos="5.10" departSpeed="7.63" departDelay="0.31" arrival="210.00" arrivalLane="junctionNorth_0" arrivalPos="492.80" arrivalSpeed="7.23" duration="139.00" routeLength="995.01" waitingTime="0.00" waitingCount="0" stopTime="0.00" timeLoss="19.16" rerouteNo="0" devices="tripinfo_southNorth.6 ssm_southNorth.6" vType="carCustom" speedFactor="1.21" vaporized=""/>
    <tripinfo id="westEastBottom0.4" depart="76.00" departLane="westJunction_0" departPos="5.10" departSpeed="7.39" departDelay="0.28" arrival="211.00" arrivalLane="junctionEast_1" arrivalPos="492.80" arrivalSpeed="8.31" duration="135.00" routeLength="994.90" waitingTime="1.00" waitingCount="1" stopTime="0.00" timeLoss="15.38" rerouteNo="0" devices="tripinfo_westEastBottom0.4 ssm_westEastBottom0.4" vType="carCustom" speedFactor="0.81" vaporized=""/>
    <tripinfo id="westEastTop.7" depart="59.00" departLane="westJunction_1" departPos="5.10" departSpeed="4.42" departDelay="4.74" arrival="216.00" arrivalLane="junctionEast_0" arrivalPos="492.80" arrivalSpeed="8.00" duration="157.00" routeLength="994.90" waitingTime="2.00" waitingCount="1" stopTime="0.00" timeLoss="36.89" rerouteNo="0" devices="tripinfo_westEastTop.7 ssm_westEastTop.7" vType="carCustom" speedFactor="0.98" vaporized=""/>
    <tripinfo id="westEastTop.8" depart="63.00" departLane="westJunction_1" departPos="5.10" departSpeed="3.68" departDelay="5.42" arrival="221.00" arrivalLane="junctionEast_0" arrivalPos="492.80" arrivalSpeed="7.87" duration="158.00" routeLength="994.90" waitingTime="1.00" waitingCount="1" stopTime="0.00" timeLoss="38.07" rerouteNo="0" devices="tripinfo_westEastTop.8 ssm_westEastTop.8" vType="carCustom" speedFactor="0.87" vaporized=""/>
    <tripinfo id="southEast.19" depart="153.00" departLane="southJunction_0" departPos="5.10" departSpeed="7.35" departDelay="0.20" arrival="223.00" arrivalLane="junctionEast_0" arrivalPos="492.80" arrivalSpeed="5.46" duration="70.00" routeLength="989.53" waitingTime="2.00" waitingCount="1" stopTime="0.00" timeLoss="10.17" rerouteNo="0" devices="tripinfo_southEast.19 ssm_southEast.19" vType="carCustom" speedFactor="1.08" vaporized="teleport"/>
    <tripinfo id="southEast.11" depart="85.00" departLane="southJunction_0" departPos="5.10" departSpeed="7.37" departDelay="2.36" arrival="226.00" arrivalLane="junctionEast_0" arrivalPos="492.80" arrivalSpeed="8.02" duration="141.00" routeLength="989.53" waitingTime="0.00" waitingCount="0" stopTime="0.00" timeLoss="21.37" rerouteNo="0" devices="tripinfo_southEast.11 ssm_southEast.11" vType="carCustom" speedFactor="1.09" vaporized=""/>
    <tripinfo id="southNorth.7" depart="91.00" departLane="southJunction_1" departPos="5.10" departSpeed="6.46" departDelay="1.50" arrival="227.00" arrivalLane="junctionNorth_0" arrivalPos="492.80" arrivalSpeed="7.62" duration="136.00" routeLength="995.01" waitingTime="0.00" waitingCount="0" stopTime="0.00" timeLoss="16.51" rerouteNo="0" devices="tripinfo_southNorth.7 ssm_southNorth.7" vType="carCustom" speedFactor="1.07" vaporized=""/>
    <tripinfo id="westEastTop.9" depart="67.00" departLane="westJunction_1" departPos="5.10" departSpeed="3.79" departDelay="4.41" arrival="231.00" arrivalLane="junctionEast_0" arrivalPos="492.80" arrivalSpeed="7.23" duration="164.00" routeLength="994.90" waitingTime="0.00" waitingCount="0" stopTime="0.00" timeLoss="43.76" rerouteNo="0" devices="tripinfo_westEastTop.9 ssm_westEastTop.9" vType="carCustom" speedFactor="1.01" vaporized=""/>
    <tripinfo id="southEast.12" depart="88.00" departLane="southJunction_0" departPos="5.10" departSpeed="5.14" departDelay="4.15" arrival="233.00" arrivalLane="junctionEast_1" arrivalPos="492.80" arrivalSpeed="8.02" duration="145.00" routeLength="989.53" waitingTime="0.00" waitingCount="0" stopTime="0.00" timeLoss="25.42" rerouteNo="0" devices="tripinfo_southEast.12 ssm_southEast.12" vType="carCustom" speedFactor="1.15" vaporized=""/>
    <tripinfo id="southEast.10" depart="83.00" departLane="southJunction_0" departPos="5.10" departSpeed="7.14" departDelay="0.81" arrival="235.00" arrivalLane="junctionEast_0" arrivalPos="492.80" arrivalSpeed="7.53" duration="152.00" routeLength="989.53" waitingTime="0.00" waitingCount="0" stopTime="0.00" timeLoss="32.96" rerouteNo="0" devices="tripinfo_southEast.10 ssm_southEast.10" vType="carCustom" speedFactor="1.15" vaporized=""/>
    <tripinfo id="westEastTop.11" depart="75.00" departLane="westJunction_1" departPos="5.10" departSpeed="4.09" departDelay="2.45" arrival="238.00" arrivalLane="junctionEast_1" arrivalPos="492.80" arrivalSpeed="8.01" duration="163.00" routeLength="994.90" waitingTime="2.00" waitingCount="1" stopTime="0.00" timeLoss="43.08" rerouteNo="0" devices="tripinfo_westEastTop.11 ssm_westEastTop.11" vType="carCustom" speedFactor="0.99" vaporized=""/>
    <tripinfo id="southNorth.8" depart="101.00" departLane="southJunction_1" departPos="5.10" departSpeed="7.68" departDelay="0.26" arrival="239.00" arrivalLane="junctionNorth_0" arrivalPos="492.80" arrivalSpeed="7.64" duration="138.00" routeLength="995.01" waitingTime="3.00" waitingCount="1" stopTime="0.00" timeLoss="17.66" rerouteNo="0" devices="tripinfo_southNorth.8 ssm_southNorth.8" vType="carCustom" speedFactor="0.94" vaporized=""/>
    <tripinfo id="southEast.13" depart="90.00" departLane="southJunction_0" departPos="5.10" departSpeed="5.37" departDelay="1.35" arrival="240.00" arrivalLane="junctionEast_0" arrivalPos="492.80" arrivalSpeed="7.44" duration="150.00" routeLength="989.53" waitingTime="0.00" waitingCount="0" stopTime="0.00" timeLoss="30.63" rerouteNo="0" devices="tripinfo_southEast.13 ssm_southEast.13" vType="carCustom" speedFactor="1.05" vaporized=""/>
    <tripinfo id="westEastBottom0.6" depart="101.00" departLane="westJunction_0" departPos="5.10" departSpeed="8.23" departDelay="0.28" arrival="243.00" arrivalLane="junctionEast_1" arrivalPos="492.80" arrivalSpeed="8.02" duration="142.00" routeLength="994.90" waitingTime="0.00" waitingCount="0" stopTime="0.00" timeLoss="21.96" rerouteNo="0" devices="tripinfo_westEastBottom0.6 ssm_westEastBottom0.6" vType="carCustom" speedFactor="1.02" vaporized=""/>
    <tripinfo id="westEastTop.10" depart="71.00" departLane="westJunction_1" departPos="5.10" departSpeed="3.58" departDelay="8.37" arrival="245.00" arrivalLane="junctionEast_0" arrivalPos="492.80" arrivalSpeed="8.01" duration="174.00" routeLength="994.90" waitingTime="0.00" waitingCount="0" stopTime="0.00" timeLoss="54.00" rerouteNo="0" devices="tripinfo_westEastTop.10 ssm_westEastTop.10" vType="carCustom" speedFactor="1.02" vaporized=""/>
    <tripinfo id="southEast.14" depart="93.00" departLane="southJunction_0" departPos="5.10" departSpeed="6.21" departDelay="0.84" arrival="249.00" arrivalLane="junctionEast_1" arrivalPos="492.80" arrivalSpeed="7.70" duration="156.00" routeLength="989.53" waitingTime="1.00" waitingCount="1" stopTime="0.00" timeLoss="36.22" rerouteNo="0" devices="tripinfo_southEast.14 ssm_southEast.14" vType="carCustom" speedFactor="0.83" vaporized=""/>
    <tripinfo id="westEastBottom0.7" depart="105.00" departLane="westJunction_0" departPos="5.10" departSpeed="7.24" departDelay="0.45" arrival="250.00" arrivalLane="junctionEast_0" arrivalPos="492.80" arrivalSpeed="7.48" duration="145.00" routeLength="994.90" waitingTime="3.00" waitingCount="1" stopTime="0.00" timeLoss="24.84" rerouteNo="0" devices="tripinfo_westEastBottom0.7 ssm_westEastBottom0.7" vType="carCustom" speedFactor="0.93" vaporized=""/>
    <tripinfo id="westEastTop.12" depart="79.00" departLane="westJunction_1" departPos="5.10" departSpeed="3.56" departDelay="3.69" arrival="254.00" arrivalLane="junctionEast_0" arrivalPos="492.80" arrivalSpeed="8.19" duration="175.00" routeLength="994.90" waitingTime="3.00" waitingCount="1" stopTime="0.00" timeLoss="55.30" rerouteNo="0" devices="tripinfo_westEastTop.12 ssm_westEastTop.12" vType="carCustom" speedFactor="1.08" vaporized=""/>
    <tripinfo id="westEastTop.14" depart="88.00" departLane="westJunction_1" departPos="5.10" departSpeed="3.46" departDelay="1.85" arrival="254.00" arrivalLane="junctionEast_1" arrivalPos="492.80" arrivalSpeed="7.36" duration="166.00" routeLength="994.90" waitingTime="0.00" waitingCount="0" stopTime="0.00" timeLoss="46.23" rerouteNo="0" devices="tripinfo_westEastTop.14 ssm_westEastTop.14" vType="carCustom" speedFactor="1.00" vaporized=""/>
    <tripinfo id="southNorth.9" depart="126.00" departLane="southJunction_1" departPos="5.10" departSpeed="8.13" departDelay="0.07" arrival="257.00" arrivalLane="junctionNorth_0" arrivalPos="492.80" arrivalSpeed="7.64" duration="131.00" routeLength="995.01" waitingTime="0.00" waitingCount="0" stopTime="0.00" timeLoss="10.87" rerouteNo="0" devices="tripinfo_southNorth.9 ssm_southNorth.9" vType="carCustom" speedFactor="1.17" vaporized=""/>
    <tripinfo id="westEastTop.15" depart="92.00" departLane="westJunction_1" departPos="5.10" departSpeed="2.98" departDelay="5.33" arrival="259.00" arrivalLane="junctionEast_1" arrivalPos="492.80" arrivalSpeed="7.43" duration="167.00" routeLength="994.90" waitingTime="0.00" waitingCount="0" stopTime="0.00" timeLoss="47.45" rerouteNo="0" devices="tripinfo_westEastTop.15 ssm_westEastTop.15" vType="carCustom" speedFactor="0.90" vaporized=""/>
    <tripinfo id="southEast.15" depart="111.00" departLane="southJunction_0" departPos="5.10" departSpeed="7.52" departDelay="0.87" arrival="259.00" arrivalLane="junctionEast_0" arrivalPos="492.80" arrivalSpeed="7.55" duration="148.00" routeLength="989.53" waitingTime="3.00" waitingCount="1" stopTime="0.00" timeLoss="28.63" rerouteNo="0" devices="tripinfo_southEast.15 ssm_southEast.15" vType="carCustom" speedFactor="0.94" vaporized=""/>
    <tripinfo id="westEastTop.13" depart="84.00" departLane="westJunction_1" departPos="5.10" departSpeed="3.20" departDelay="5.49" arrival="264.00" arrivalLane="junctionEast_0" arrivalPos="492.80" arrivalSpeed="7.72" duration="180.00" routeLength="994.90" waitingTime="2.00" waitingCount="1" stopTime="0.00" timeLoss="59.71" rerouteNo="0" devices="tripinfo_westEastTop.13 ssm_westEastTop.13" vType="carCustom" speedFactor="0.95" vaporized=""/>
    <tripinfo id="westEastTop.16" depart="97.00" departLane="westJunction_1" departPos="5.10" departSpeed="3.83" departDelay="2.50" arrival="265.00" arrivalLane="junctionEast_1" arrivalPos="492.80" arrivalSpeed="7.33" duration="168.00" routeLength="994.90" waitingTime="3.00" waitingCount="1" stopTime="0.00" timeLoss="47.81" rerouteNo="0" devices="tripinfo_westEastTop.16 ssm_westEastTop.16" vType="carCustom" speedFactor="0.95" vaporized=""/>
    <tripinfo id="westEastBottom0.8" depart="122.00" departLane="westJunction_0" departPos="5.10" departSpeed="7.96" departDelay="0.90" arrival="268.00" arrivalLane="junctionEast_0" arrivalPos="492.80" arrivalSpeed="7.93" duration="146.00" routeLength="994.90" waitingTime="0.00" waitingCount="0" stopTime="0.00" timeLoss="26.42" rerouteNo="0" devices="tripinfo_westEastBottom0.8 ssm_westEastBottom0.8" vType="carCustom" speedFactor="1.10" vaporized=""/>
    <tripinfo id="southNorth.10" depart="128.00" departLane="southJunction_1" departPos="5.10" departSpeed="8.03" departDelay="0.06" arrival="269.00" arrivalLane="junctionNorth_0" arrivalPos="492.80" arrivalSpeed="7.09" duration="141.00" routeLength="995.01" waitingTime="3.00" waitingCount="1" stopTime="0.00" timeLoss="21.09" rerouteNo="0" devices="tripinfo_southNorth.10 ssm_southNorth.10" vType="carCustom" speedFactor="0.90" vaporized=""/>
    <tripinfo id="westEastBottom0.9" depart="126.00" departLane="westJunction_0" departPos="5.10" departSpeed="7.18" departDelay="0.99" arrival="270.00" arrivalLane="junctionEast_1" arrivalPos="492.80" arrivalSpeed="7.89" duration="144.00" routeLength="994.90" waitingTime="2.00" waitingCount="1" stopTime="0.00" timeLoss="23.80" rerouteNo="0" devices="tripinfo_westEastBottom0.9 ssm_westEastBottom0.9" vType="carCustom" speedFactor="0.91" vaporized=""/>
    <tripinfo id="southEast.16" depart="125.00" departLane="southJunction_0" departPos="5.10" departSpeed="7.22" departDelay="0.48" arrival="273.00" arrivalLane="junctionEast_0" arrivalPos="492.80" arrivalSpeed="7.08" duration="148.00" routeLength="989.53" waitingTime="0.00" waitingCount="0" stopTime="0.00" timeLoss="28.68" rerouteNo="0" devices="tripinfo_southEast.16 ssm_southEast.16" vType="carCustom" speedFactor="0.94" vaporized=""/>
    <tripinfo id="westEastTop.17" depart="104.00" departLane="westJunction_1" departPos="5.10" departSpeed="3.21" departDelay="0.00" arrival="275.00" arrivalLane="junctionEast_1" arrivalPos="492.80" arrivalSpeed="7.99" duration="171.00" routeLength="994.90" waitingTime="5.00" waitingCount="1" stopTime="0.00" timeLoss="50.85" rerouteNo="0" devices="tripinfo_westEastTop.17 ssm_westEastTop.17" vType="carCustom" speedFactor="1.07" vaporized=""/>
    <tripinfo id="southEast.17" depart="140.00" departLane="southJunction_0" departPos="5.10" departSpeed="8.18" departDelay="0.04" arrival="278.00" arrivalLane="junctionEast_0" arrivalPos="492.80" arrivalSpeed="8.13" duration="138.00" routeLength="989.53" waitingTime="0.00" waitingCount="0" stopTime="0.00" timeLoss="18.48" rerouteNo="0" devices="tripinfo_southEast.17 ssm_southEast.17" vType="carCustom" speedFactor="0.98" vaporized=""/>
    <tripinfo id="southNorth.11" depart="143.00" departLane="southJunction_1" departPos="5.10" departSpeed="7.52" departDelay="0.56" arrival="278.00" arrivalLane="junctionNorth_0" arrivalPos="492.80" arrivalSpeed="8.28" duration="135.00" routeLength="995.01" waitingTime="2.00" waitingCount="1" stopTime="0.00" timeLoss="14.83" rerouteNo="0" devices="tripinfo_southNorth.11 ssm_southNorth.11" vType="carCustom" speedFactor="0.87" vaporized=""/>
    <tripinfo id="westEastTop.18" depart="107.00" departLane="westJunction_1" departPos="5.10" departSpeed="3.74" departDelay="2.34" arrival="280.00" arrivalLane="junctionEast_1" arrivalPos="492.80" arrivalSpeed="7.15" duration="173.00" routeLength="994.90" waitingTime="3.00" waitingCount="1" stopTime="0.00" timeLoss="52.98" rerouteNo="0" devices="tripinfo_westEastTop.18 ssm_westEastTop.18" vType="carCustom" speedFactor="1.07" vaporized=""/>
    <tripinfo id="westEastBottom0.10" depart="137.00" departLane="westJunction_0" departPos="5.10" departSpeed="7.62" departDelay="0.66" arrival="283.00" arrivalLane="junctionEast_0" arrivalPos="492.80" arrivalSpeed="8.22" duration="146.00" routeLength="994.90" waitingTime="2.00" waitingCount="1" stopTime="0.00" timeLoss="25.81" rerouteNo="0" devices="tripinfo_westEastBottom0.10 ssm_westEastBottom0.10" vType="carCustom" speedFactor="1.13" vaporized=""/>
    <tripinfo id="westEastTop.19" depart="116.00" departLane="westJunction_1" departPos="5.10" departSpeed="4.68" departDelay="0.83" arrival="285.00" arrivalLane="junctionEast_1" arrivalPos="492.80" arrivalSpeed="7.96" duration="169.00" routeLength="994.90" waitingTime="2.00" waitingCount="2" stopTime="0.00" timeLoss="49.15" rerouteNo="0" devices="tripinfo_westEastTop.19 ssm_westEastTop.19" vType="carCustom" speedFactor="0.97" vaporized=""/>
    <tripinfo id="southEast.18" depart="147.00" departLane="southJunction_0" departPos="5.10" departSpeed="7.49" departDelay="0.65" arrival="287.00" arrivalLane="junctionEast_0" arrivalPos="492.80" arrivalSpeed="8.08" duration="140.00" routeLength="989.53" waitingTime="0.00" waitingCount="0" stopTime="0.00" timeLoss="21.06" rerouteNo="0" devices="tripinfo_southEast.18 ssm_southEast.18" vType="carCustom" speedFactor="1.08" vaporized=""/>