<?xml version="1.0" encoding="UTF-8"?>

<!-- generated on 2025-04-29 04:53:12 by Eclipse SUMO sumo Version 1.20.0
<configuration xmlns:xsi="http://www.w3.org/2001/XMLSchema-instance" xsi:noNamespaceSchemaLocation="http://sumo.dlr.de/xsd/sumoConfiguration.xsd">

    <input>
        <net-file value="nets/2lane_unprotected_right/2lane_unprotected_right.net.xml"/>
        <route-files value="nets/2lane_unprotected_right/2lane_unprotected_right.rou.xml"/>
    </input>

    <output>
        <tripinfo-output value="traces/transs50f0.5_s50_f1_random/0033_tripinfo.xml"/>
        <collision-output value="traces/transs50f0.5_s50_f1_random/0033_collisions.xml"/>
        <statistic-output value="traces/transs50f0.5_s50_f1_random/0033_statistics.xml"/>
    </output>

    <processing>
        <collision.action value="teleport"/>
        <collision.check-junctions value="true"/>
        <time-to-teleport value="-1"/>
        <waiting-time-memory value="1000"/>
        <max-depart-delay value="-1"/>
        <default.speeddev value="0.1"/>
    </processing>

    <report>
        <no-warnings value="true"/>
    </report>

    <ssm_device>
        <device.ssm.probability value="1.0"/>
        <device.ssm.measures value="BR"/>
        <device.ssm.file value="/Users/finn/Code/CausalKnowledgeTransfer-4-SafeRL/traces/transs50f0.5_s50_f1_random/0033_ssm.xml"/>
    </ssm_device>

    <traci_server>
        <remote-port value="62797"/>
    </traci_server>

    <random_number>
        <random value="true"/>
    </random_number>

</configuration>
-->

<tripinfos xmlns:xsi="http://www.w3.org/2001/XMLSchema-instance" xsi:noNamespaceSchemaLocation="http://sumo.dlr.de/xsd/tripinfo_file.xsd">
    <tripinfo id="southEast.4" depart="39.00" departLane="southJunction_0" departPos="5.10" departSpeed="7.32" departDelay="0.22" arrival="108.00" arrivalLane="junctionEast_0" arrivalPos="492.80" arrivalSpeed="4.55" duration="69.00" routeLength="989.53" waitingTime="1.00" waitingCount="1" stopTime="0.00" timeLoss="8.75" rerouteNo="0" devices="tripinfo_southEast.4 ssm_southEast.4" vType="carCustom" speedFactor="0.88" vaporized="teleport"/>
    <tripinfo id="westEastBottom0.0" depart="2.00" departLane="westJunction_0" departPos="5.10" departSpeed="8.33" departDelay="0.52" arrival="138.00" arrivalLane="junctionEast_0" arrivalPos="492.80" arrivalSpeed="7.73" duration="136.00" routeLength="994.90" waitingTime="3.00" waitingCount="1" stopTime="0.00" timeLoss="15.79" rerouteNo="0" devices="tripinfo_westEastBottom0.0 ssm_westEastBottom0.0" vType="carCustom" speedFactor="1.05" vaporized=""/>
    <tripinfo id="westEastBottom0.1" depart="9.00" departLane="westJunction_0" departPos="5.10" departSpeed="7.72" departDelay="0.06" arrival="139.00" arrivalLane="junctionEast_1" arrivalPos="492.80" arrivalSpeed="7.85" duration="130.00" routeLength="994.90" waitingTime="0.00" waitingCount="0" stopTime="0.00" timeLoss="9.83" rerouteNo="0" devices="tripinfo_westEastBottom0.1 ssm_westEastBottom0.1" vType="carCustom" speedFactor="0.70" vaporized=""/>
    <tripinfo id="southNorth.0" depart="12.00" departLane="southJunction_1" departPos="5.10" departSpeed="8.33" departDelay="1.00" arrival="142.00" arrivalLane="junctionNorth_0" arrivalPos="492.80" arrivalSpeed="7.63" duration="130.00" routeLength="995.01" waitingTime="0.00" waitingCount="0" stopTime="0.00" timeLoss="9.85" rerouteNo="0" devices="tripinfo_southNorth.0 ssm_southNorth.0" vType="carCustom" speedFactor="0.87" vaporized=""/>
    <tripinfo id="southEast.0" depart="7.00" departLane="southJunction_0" departPos="5.10" departSpeed="8.33" departDelay="0.88" arrival="143.00" arrivalLane="junctionEast_0" arrivalPos="492.80" arrivalSpeed="7.74" duration="136.00" routeLength="989.53" waitingTime="3.00" waitingCount="1" stopTime="0.00" timeLoss="16.56" rerouteNo="0" devices="tripinfo_southEast.0 ssm_southEast.0" vType="carCustom" speedFactor="1.11" vaporized=""/>
    <tripinfo id="southEast.1" depart="14.00" departLane="southJunction_0" departPos="5.10" departSpeed="7.72" departDelay="0.30" arrival="147.00" arrivalLane="junctionEast_0" arrivalPos="492.80" arrivalSpeed="7.49" duration="133.00" routeLength="989.53" waitingTime="0.00" waitingCount="0" stopTime="0.00" timeLoss="13.54" rerouteNo="0" devices="tripinfo_southEast.1 ssm_southEast.1" vType="carCustom" speedFactor="1.02" vaporized=""/>
    <tripinfo id="westEastTop.0" depart="12.00" departLane="westJunction_1" departPos="5.10" departSpeed="8.33" departDelay="0.69" arrival="148.00" arrivalLane="junctionEast_1" arrivalPos="492.80" arrivalSpeed="7.32" duration="136.00" routeLength="994.90" waitingTime="3.00" waitingCount="1" stopTime="0.00" timeLoss="16.06" rerouteNo="0" devices="tripinfo_westEastTop.0 ssm_westEastTop.0" vType="carCustom" speedFactor="1.09" vaporized=""/>
    <tripinfo id="westEastBottom0.2" depart="16.00" departLane="westJunction_0" departPos="5.10" departSpeed="8.11" departDelay="0.41" arrival="152.00" arrivalLane="junctionEast_0" arrivalPos="492.80" arrivalSpeed="8.25" duration="136.00" routeLength="994.90" waitingTime="0.00" waitingCount="0" stopTime="0.00" timeLoss="15.72" rerouteNo="0" devices="tripinfo_westEastBottom0.2 ssm_westEastBottom0.2" vType="carCustom" speedFactor="0.90" vaporized=""/>
    <tripinfo id="westEastTop.1" depart="14.00" departLane="westJunction_1" departPos="5.10" departSpeed="7.90" departDelay="2.20" arrival="153.00" arrivalLane="junctionEast_1" arrivalPos="492.80" arrivalSpeed="7.36" duration="139.00" routeLength="994.90" waitingTime="0.00" waitingCount="0" stopTime="0.00" timeLoss="18.95" rerouteNo="0" devices="tripinfo_westEastTop.1 ssm_westEastTop.1" vType="carCustom" speedFactor="0.96" vaporized=""/>
    <tripinfo id="southEast.2" depart="24.00" departLane="southJunction_0" departPos="5.10" departSpeed="7.71" departDelay="0.35" arrival="156.00" arrivalLane="junctionEast_0" arrivalPos="492.80" arrivalSpeed="7.49" duration="132.00" routeLength="989.53" waitingTime="0.00" waitingCount="0" stopTime="0.00" timeLoss="12.17" rerouteNo="0" devices="tripinfo_southEast.2 ssm_southEast.2" vType="carCustom" speedFactor="1.01" vaporized=""/>
    <tripinfo id="westEastTop.2" depart="20.00" departLane="westJunction_1" departPos="5.10" departSpeed="6.59" departDelay="0.76" arrival="160.00" arrivalLane="junctionEast_0" arrivalPos="492.80" arrivalSpeed="7.59" duration="140.00" routeLength="994.90" waitingTime="2.00" waitingCount="1" stopTime="0.00" timeLoss="19.84" rerouteNo="0" devices="tripinfo_westEastTop.2 ssm_westEastTop.2" vType="carCustom" speedFactor="0.92" vaporized=""/>
    <tripinfo id="westEastBottom0.3" depart="21.00" departLane="westJunction_0" departPos="5.10" departSpeed="7.17" departDelay="0.97" arrival="160.00" arrivalLane="junctionEast_1" arrivalPos="492.80" arrivalSpeed="7.29" duration="139.00" routeLength="994.90" waitingTime="4.00" waitingCount="1" stopTime="0.00" timeLoss="19.48" rerouteNo="0" devices="tripinfo_westEastBottom0.3 ssm_westEastBottom0.3" vType="carCustom" speedFactor="0.99" vaporized=""/>
    <tripinfo id="westEastBottom0.4" depart="24.00" departLane="westJunction_0" departPos="5.10" departSpeed="7.58" departDelay="1.56" arrival="164.00" arrivalLane="junctionEast_0" arrivalPos="492.80" arrivalSpeed="7.98" duration="140.00" routeLength="994.90" waitingTime="0.00" waitingCount="0" stopTime="0.00" timeLoss="20.21" rerouteNo="0" devices="tripinfo_westEastBottom0.4 ssm_westEastBottom0.4" vType="carCustom" speedFactor="1.19" vaporized=""/>
    <tripinfo id="southNorth.1" depart="34.00" departLane="southJunction_1" departPos="5.10" departSpeed="7.98" departDelay="0.51" arrival="165.00" arrivalLane="junctionNorth_0" arrivalPos="492.80" arrivalSpeed="7.26" duration="131.00" routeLength="995.01" waitingTime="0.00" waitingCount="0" stopTime="0.00" timeLoss="11.25" rerouteNo="0" devices="tripinfo_southNorth.1 ssm_southNorth.1" vType="carCustom" speedFactor="0.86" vaporized=""/>
    <tripinfo id="westEastTop.3" depart="23.00" departLane="westJunction_1" departPos="5.10" departSpeed="8.24" departDelay="2.14" arrival="168.00" arrivalLane="junctionEast_1" arrivalPos="492.80" arrivalSpeed="7.15" duration="145.00" routeLength="994.90" waitingTime="5.00" waitingCount="1" stopTime="0.00" timeLoss="25.41" rerouteNo="0" devices="tripinfo_westEastTop.3 ssm_westEastTop.3" vType="carCustom" speedFactor="0.92" vaporized=""/>
    <tripinfo id="southEast.3" depart="26.00" departLane="southJunction_0" departPos="5.10" departSpeed="7.44" departDelay="1.74" arrival="168.00" arrivalLane="junctionEast_0" arrivalPos="492.80" arrivalSpeed="7.74" duration="142.00" routeLength="989.53" waitingTime="1.00" waitingCount="1" stopTime="0.00" timeLoss="22.93" rerouteNo="0" devices="tripinfo_southEast.3 ssm_southEast.3" vType="carCustom" speedFactor="1.08" vaporized=""/>
    <tripinfo id="westEastBottom0.5" depart="27.00" departLane="westJunction_0" departPos="5.10" departSpeed="7.12" departDelay="0.11" arrival="173.00" arrivalLane="junctionEast_0" arrivalPos="492.80" arrivalSpeed="7.09" duration="146.00" routeLength="994.90" waitingTime="2.00" waitingCount="1" stopTime="0.00" timeLoss="25.74" rerouteNo="0" devices="tripinfo_westEastBottom0.5 ssm_westEastBottom0.5" vType="carCustom" speedFactor="1.11" vaporized=""/>
    <tripinfo id="westEastTop.4" depart="32.00" departLane="westJunction_1" departPos="5.10" departSpeed="7.80" departDelay="0.52" arrival="173.00" arrivalLane="junctionEast_1" arrivalPos="492.80" arrivalSpeed="7.47" duration="141.00" routeLength="994.90" waitingTime="1.00" waitingCount="1" stopTime="0.00" timeLoss="21.18" rerouteNo="0" devices="tripinfo_westEastTop.4 ssm_westEastTop.4" vType="carCustom" speedFactor="1.10" vaporized=""/>
    <tripinfo id="westEastBottom0.6" depart="31.00" departLane="westJunction_0" departPos="5.10" departSpeed="6.17" departDelay="0.64" arrival="177.00" arrivalLane="junctionEast_0" arrivalPos="492.80" arrivalSpeed="7.93" duration="146.00" routeLength="994.90" waitingTime="0.00" waitingCount="0" stopTime="0.00" timeLoss="25.76" rerouteNo="0" devices="tripinfo_westEastBottom0.6 ssm_westEastBottom0.6" vType="carCustom" speedFactor="1.13" vaporized=""/>
    <tripinfo id="westEastTop.5" depart="38.00" departLane="westJunction_1" departPos="5.10" departSpeed="7.71" departDelay="0.01" arrival="181.00" arrivalLane="junctionEast_0" arrivalPos="492.80" arrivalSpeed="7.07" duration="143.00" routeLength="994.90" waitingTime="2.00" waitingCount="1" stopTime="0.00" timeLoss="22.92" rerouteNo="0" devices="tripinfo_westEastTop.5 ssm_westEastTop.5" vType="carCustom" speedFactor="1.10" vaporized=""/>
    <tripinfo id="westEastBottom0.7" depart="48.00" departLane="westJunction_0" departPos="5.10" departSpeed="6.72" departDelay="0.08" arrival="181.00" arrivalLane="junctionEast_1" arrivalPos="492.80" arrivalSpeed="7.77" duration="133.00" routeLength="994.90" waitingTime="0.00" waitingCount="0" stopTime="0.00" timeLoss="12.76" rerouteNo="0" devices="tripinfo_westEastBottom0.7 ssm_westEastBottom0.7" vType="carCustom" speedFactor="0.99" vaporized=""/>
    <tripinfo id="westEastTop.6" depart="40.00" departLane="westJunction_1" departPos="5.10" departSpeed="8.13" departDelay="1.32" arrival="188.00" arrivalLane="junctionEast_1" arrivalPos="492.80" arrivalSpeed="7.94" duration="148.00" routeLength="994.90" waitingTime="5.00" waitingCount="1" stopTime="0.00" timeLoss="28.47" rerouteNo="0" devices="tripinfo_westEastTop.6 ssm_westEastTop.6" vType="carCustom" speedFactor="1.03" vaporized=""/>
    <tripinfo id="westEastBottom0.8" depart="52.00" departLane="westJunction_0" departPos="5.10" departSpeed="7.55" departDelay="0.54" arrival="188.00" arrivalLane="junctionEast_0" arrivalPos="492.80" arrivalSpeed="7.29" duration="136.00" routeLength="994.90" waitingTime="3.00" waitingCount="1" stopTime="0.00" timeLoss="16.28" rerouteNo="0" devices="tripinfo_westEastBottom0.8 ssm_westEastBottom0.8" vType="carCustom" speedFactor="1.22" vaporized=""/>
    <tripinfo id="westEastBottom0.9" depart="58.00" departLane="westJunction_0" departPos="5.10" departSpeed="7.66" departDelay="0.06" arrival="192.00" arrivalLane="junctionEast_0" arrivalPos="492.80" arrivalSpeed="7.95" duration="134.00" routeLength="994.90" waitingTime="0.00" waitingCount="0" stopTime="0.00" timeLoss="14.54" rerouteNo="0" devices="tripinfo_westEastBottom0.9 ssm_westEastBottom0.9" vType="carCustom" speedFactor="0.94" vaporized=""/>
    <tripinfo id="westEastTop.7" depart="43.00" departLane="westJunction_1" departPos="5.10" departSpeed="5.53" departDelay="1.35" arrival="193.00" arrivalLane="junctionEast_0" arrivalPos="492.80" arrivalSpeed="8.13" duration="150.00" routeLength="994.90" waitingTime="4.00" waitingCount="1" stopTime="0.00" timeLoss="29.64" rerouteNo="0" devices="tripinfo_westEastTop.7 ssm_westEastTop.7" vType="carCustom" speedFactor="0.94" vaporized=""/>
    <tripinfo id="southNorth.2" depart="61.00" departLane="southJunction_1" departPos="5.10" departSpeed="7.88" departDelay="0.37" arrival="194.00" arrivalLane="junctionNorth_0" arrivalPos="492.80" arrivalSpeed="8.11" duration="133.00" routeLength="995.01" waitingTime="0.00" waitingCount="0" stopTime="0.00" timeLoss="13.49" rerouteNo="0" devices="tripinfo_southNorth.2 ssm_southNorth.2" vType="carCustom" speedFactor="0.99" vaporized=""/>
    <tripinfo id="southEast.5" depart="66.00" departLane="southJunction_0" departPos="5.10" departSpeed="7.43" departDelay="0.76" arrival="197.00" arrivalLane="junctionEast_0" arrivalPos="492.80" arrivalSpeed="8.30" duration="131.00" routeLength="989.53" waitingTime="0.00" waitingCount="0" stopTime="0.00" timeLoss="11.39" rerouteNo="0" devices="tripinfo_southEast.5 ssm_southEast.5" vType="carCustom" speedFactor="0.95" vaporized=""/>
    <tripinfo id="westEastTop.8" depart="46.00" departLane="westJunction_1" departPos="5.10" departSpeed="5.05" departDelay="0.63" arrival="199.00" arrivalLane="junctionEast_0" arrivalPos="492.80" arrivalSpeed="7.49" duration="153.00" routeLength="994.90" waitingTime="2.00" waitingCount="1" stopTime="0.00" timeLoss="32.69" rerouteNo="0" devices="tripinfo_westEastTop.8 ssm_westEastTop.8" vType="carCustom" speedFactor="0.92" vaporized=""/>
    <tripinfo id="westEastBottom0.10" depart="62.00" departLane="westJunction_0" departPos="5.10" departSpeed="8.15" departDelay="0.30" arrival="201.00" arrivalLane="junctionEast_0" arrivalPos="492.80" arrivalSpeed="8.27" duration="139.00" routeLength="994.90" waitingTime="2.00" waitingCount="1" stopTime="0.00" timeLoss="19.21" rerouteNo="0" devices="tripinfo_westEastBottom0.10 ssm_westEastBottom0.10" vType="carCustom" speedFactor="0.99" vaporized=""/>
    <tripinfo id="westEastTop.9" depart="55.00" departLane="westJunction_1" departPos="5.10" departSpeed="6.37" departDelay="0.40" arrival="203.00" arrivalLane="junctionEast_0" arrivalPos="492.80" arrivalSpeed="7.32" duration="148.00" routeLength="994.90" waitingTime="0.00" waitingCount="0" stopTime="0.00" timeLoss="27.90" rerouteNo="0" devices="tripinfo_westEastTop.9 ssm_westEastTop.9" vType="carCustom" speedFactor="0.94" vaporized=""/>
    <tripinfo id="southEast.6" depart="71.00" departLane="southJunction_0" departPos="5.10" departSpeed="7.38" departDelay="0.84" arrival="205.00" arrivalLane="junctionEast_0" arrivalPos="492.80" arrivalSpeed="7.85" duration="134.00" routeLength="989.53" waitingTime="0.00" waitingCount="0" stopTime="0.00" timeLoss="14.91" rerouteNo="0" devices="tripinfo_southEast.6 ssm_southEast.6" vType="carCustom" speedFactor="0.97" vaporized=""/>
    <tripinfo id="southNorth.3" depart="75.00" departLane="southJunction_1" departPos="5.10" departSpeed="7.81" departDelay="0.00" arrival="205.00" arrivalLane="junctionNorth_0" arrivalPos="492.80" arrivalSpeed="7.37" duration="130.00" routeLength="995.01" waitingTime="0.00" waitingCount="0" stopTime="0.00" timeLoss="10.39" rerouteNo="0" devices="tripinfo_southNorth.3 ssm_southNorth.3" vType="carCustom" speedFactor="0.89" vaporized=""/>
    <tripinfo id="westEastTop.10" depart="58.00" departLane="westJunction_1" departPos="5.10" departSpeed="7.93" departDelay="0.00" arrival="209.00" arrivalLane="junctionEast_1" arrivalPos="492.80" arrivalSpeed="8.03" duration="151.00" routeLength="994.90" waitingTime="1.00" waitingCount="1" stopTime="0.00" timeLoss="31.21" rerouteNo="0" devices="tripinfo_westEastTop.10 ssm_westEastTop.10" vType="carCustom" speedFactor="1.02" vaporized=""/>
    <tripinfo id="southEast.7" depart="74.00" departLane="southJunction_0" departPos="5.10" departSpeed="8.18" departDelay="0.91" arrival="209.00" arrivalLane="junctionEast_0" arrivalPos="492.80" arrivalSpeed="7.37" duration="135.00" routeLength="989.53" waitingTime="0.00" waitingCount="0" stopTime="0.00" timeLoss="15.55" rerouteNo="0" devices="tripinfo_southEast.7 ssm_southEast.7" vType="carCustom" speedFactor="0.84" vaporized=""/>
    <tripinfo id="westEastTop.11" depart="65.00" departLane="westJunction_1" departPos="5.10" departSpeed="7.23" departDelay="0.95" arrival="213.00" arrivalLane="junctionEast_0" arrivalPos="492.80" arrivalSpeed="7.64" duration="148.00" routeLength="994.90" waitingTime="0.00" waitingCount="0" stopTime="0.00" timeLoss="28.34" rerouteNo="0" devices="tripinfo_westEastTop.11 ssm_westEastTop.11" vType="carCustom" speedFactor="0.97" vaporized=""/>
    <tripinfo id="southNorth.4" depart="80.00" departLane="southJunction_1" departPos="5.10" departSpeed="7.20" departDelay="0.34" arrival="214.00" arrivalLane="junctionNorth_0" arrivalPos="492.80" arrivalSpeed="7.98" duration="134.00" routeLength="995.01" waitingTime="1.00" waitingCount="1" stopTime="0.00" timeLoss="13.65" rerouteNo="0" devices="tripinfo_southNorth.4 ssm_southNorth.4" vType="carCustom" speedFactor="0.98" vaporized=""/>
    <tripinfo id="westEastTop.12" depart="67.00" departLane="westJunction_1" departPos="5.10" departSpeed="7.15" departDelay="2.37" arrival="220.00" arrivalLane="junctionEast_1" arrivalPos="492.80" arrivalSpeed="7.50" duration="153.00" routeLength="994.90" waitingTime="2.00" waitingCount="1" stopTime="0.00" timeLoss="32.81" rerouteNo="0" devices="tripinfo_westEastTop.12 ssm_westEastTop.12" vType="carCustom" speedFactor="0.94" vaporized=""/>
    <tripinfo id="westEastBottom0.11" depart="90.00" departLane="westJunction_0" departPos="5.10" departSpeed="7.22" departDelay="0.13" arrival="220.00" arrivalLane="junctionEast_0" arrivalPos="492.80" arrivalSpeed="8.19" duration="130.00" routeLength="994.90" waitingTime="0.00" waitingCount="0" stopTime="0.00" timeLoss="10.20" rerouteNo="0" devices="tripinfo_westEastBottom0.11 ssm_westEastBottom0.11" vType="carCustom" speedFactor="1.04" vaporized=""/>
    <tripinfo id="southNorth.5" depart="86.00" departLane="southJunction_1" departPos="5.10" departSpeed="7.39" departDelay="0.85" arrival="225.00" arrivalLane="junctionNorth_0" arrivalPos="492.80" arrivalSpeed="7.29" duration="139.00" routeLength="995.01" waitingTime="4.00" waitingCount="1" stopTime="0.00" timeLoss="19.01" rerouteNo="0" devices="tripinfo_southNorth.5 ssm_southNorth.5" vType="carCustom" speedFactor="1.03" vaporized=""/>
    <tripinfo id="southEast.8" depart="89.00" departLane="southJunction_0" departPos="5.10" departSpeed="7.80" departDelay="0.79" arrival="225.00" arrivalLane="junctionEast_0" arrivalPos="492.80" arrivalSpeed="7.08" duration="136.00" routeLength="989.53" waitingTime="2.00" waitingCount="1" stopTime="0.00" timeLoss="16.50" rerouteNo="0" devices="tripinfo_southEast.8 ssm_southEast.8" vType="carCustom" speedFactor="1.00" vaporized=""/>
    <tripinfo id="southNorth.6" depart="89.00" departLane="southJunction_1" departPos="5.10" departSpeed="8.02" departDelay="1.90" arrival="229.00" arrivalLane="junctionNorth_0" arrivalPos="492.80" arrivalSpeed="7.93" duration="140.00" routeLength="995.01" waitingTime="1.00" waitingCount="1" stopTime="0.00" timeLoss="19.86" rerouteNo="0" devices="tripinfo_southNorth.6 ssm_southNorth.6" vType="carCustom" speedFactor="1.02" vaporized=""/>
    <tripinfo id="westEastBottom0.12" depart="98.00" departLane="westJunction_0" departPos="5.10" departSpeed="8.28" departDelay="0.21" arrival="229.00" arrivalLane="junctionEast_0" arrivalPos="492.80" arrivalSpeed="8.18" duration="131.00" routeLength="994.90" waitingTime="0.00" waitingCount="0" stopTime="0.00" timeLoss="11.19" rerouteNo="0" devices="tripinfo_westEastBottom0.12 ssm_westEastBottom0.12" vType="carCustom" speedFactor="1.05" vaporized=""/>
    <tripinfo id="westEastTop.13" depart="70.00" departLane="westJunction_1" departPos="5.10" departSpeed="5.37" departDelay="2.47" arrival="230.00" arrivalLane="junctionEast_1" arrivalPos="492.80" arrivalSpeed="7.99" duration="160.00" routeLength="994.90" waitingTime="5.00" waitingCount="1" stopTime="0.00" timeLoss="39.75" rerouteNo="0" devices="tripinfo_westEastTop.13 ssm_westEastTop.13" vType="carCustom" speedFactor="1.03" vaporized=""/>
    <tripinfo id="westEastTop.14" depart="73.00" departLane="westJunction_1" departPos="5.10" departSpeed="4.94" departDelay="3.76" arrival="233.00" arrivalLane="junctionEast_0" arrivalPos="492.80" arrivalSpeed="8.02" duration="160.00" routeLength="994.90" waitingTime="3.00" waitingCount="1" stopTime="0.00" timeLoss="40.12" rerouteNo="0" devices="tripinfo_westEastTop.14 ssm_westEastTop.14" vType="carCustom" speedFactor="0.97" vaporized=""/>
    <tripinfo id="southNorth.7" depart="99.00" departLane="southJunction_1" departPos="5.10" departSpeed="7.30" departDelay="0.59" arrival="234.00" arrivalLane="junctionNorth_0" arrivalPos="492.80" arrivalSpeed="7.26" duration="135.00" routeLength="995.01" waitingTime="1.00" waitingCount="1" stopTime="0.00" timeLoss="14.99" rerouteNo="0" devices="tripinfo_southNorth.7 ssm_southNorth.7" vType="carCustom" speedFactor="1.11" vaporized=""/>
    <tripinfo id="southEast.9" depart="105.00" departLane="southJunction_0" departPos="5.10" departSpeed="7.84" departDelay="0.34" arrival="237.00" arrivalLane="junctionEast_0" arrivalPos="492.80" arrivalSpeed="7.45" duration="132.00" routeLength="989.53" waitingTime="0.00" waitingCount="0" stopTime="0.00" timeLoss="12.51" rerouteNo="0" devices="tripinfo_southEast.9 ssm_southEast.9" vType="carCustom" speedFactor="0.97" vaporized=""/>
    <tripinfo id="westEastTop.15" depart="76.00" departLane="westJunction_1" departPos="5.10" departSpeed="3.70" departDelay="4.59" arrival="239.00" arrivalLane="junctionEast_0" arrivalPos="492.80" arrivalSpeed="7.48" duration="163.00" routeLength="994.90" waitingTime="4.00" waitingCount="2" stopTime="0.00" timeLoss="42.86" rerouteNo="0" devices="tripinfo_westEastTop.15 ssm_westEastTop.15" vType="carCustom" speedFactor="0.98" vaporized=""/>
    <tripinfo id="westEastBottom0.13" depart="106.00" departLane="westJunction_0" departPos="5.10" departSpeed="7.35" departDelay="0.50" arrival="242.00" arrivalLane="junctionEast_0" arrivalPos="492.80" arrivalSpeed="7.22" duration="136.00" routeLength="994.90" waitingTime="0.00" waitingCount="0" stopTime="0.00" timeLoss="16.24" rerouteNo="0" devices="tripinfo_westEastBottom0.13 ssm_westEastBottom0.13" vType="carCustom" speedFactor="0.99" vaporized=""/>
    <tripinfo id="southNorth.8" depart="101.00" departLane="southJunction_1" departPos="5.10" departSpeed="7.24" departDelay="2.04" arrival="244.00" arrivalLane="junctionNorth_0" arrivalPos="492.80" arrivalSpeed="8.05" duration="143.00" routeLength="995.01" waitingTime="5.00" waitingCount="1" stopTime="0.00" timeLoss="23.46" rerouteNo="0" devices="tripinfo_southNorth.8 ssm_southNorth.8" vType="carCustom" speedFactor="0.85" vaporized=""/>
    <tripinfo id="westEastTop.16" depart="80.00" departLane="westJunction_1" departPos="5.10" departSpeed="4.89" departDelay="6.82" arrival="249.00" arrivalLane="junctionEast_0" arrivalPos="492.80" arrivalSpeed="8.11" duration="169.00" routeLength="994.90" waitingTime="5.00" waitingCount="1" stopTime="0.00" timeLoss="49.09" rerouteNo="0" devices="tripinfo_westEastTop.16 ssm_westEastTop.16" vType="carCustom" speedFactor="1.13" vaporized=""/>
    <tripinfo id="westEastTop.17" depart="84.00" departLane="westJunction_1" departPos="5.10" departSpeed="3.83" departDelay="8.02" arrival="253.00" arrivalLane="junctionEast_0" arrivalPos="492.80" arrivalSpeed="7.88" duration="169.00" routeLength="994.90" waitingTime="4.00" waitingCount="1" stopTime="0.00" timeLoss="49.25" rerouteNo="0" devices="tripinfo_westEastTop.17 ssm_westEastTop.17" vType="carCustom" speedFactor="1.06" vaporized=""/>
    <tripinfo id="southNorth.9" depart="105.00" departLane="southJunction_1" departPos="5.10" departSpeed="6.28" departDelay="0.84" arrival="254.00" arrivalLane="junctionNorth_0" arrivalPos="492.80" arrivalSpeed="7.74" duration="149.00" routeLength="995.01" waitingTime="8.00" waitingCount="2" stopTime="0.00" timeLoss="29.10" rerouteNo="0" devices="tripinfo_southNorth.9 ssm_southNorth.9" vType="carCustom" speedFactor="1.03" vaporized=""/>
    <tripinfo id="southNorth.10" depart="113.00" departLane="southJunction_1" departPos="5.10" departSpeed="7.30" departDelay="0.36" arrival="258.00" arrivalLane="junctionNorth_0" arrivalPos="492.80" arrivalSpeed="7.70" duration="145.00" routeLength="995.01" waitingTime="2.00" waitingCount="1" stopTime="0.00" timeLoss="25.19" rerouteNo="0" devices="tripinfo_southNorth.10 ssm_southNorth.10" vType="carCustom" speedFactor="0.94" vaporized=""/>
    <tripinfo id="southNorth.11" depart="116.00" departLane="southJunction_1" departPos="5.10" departSpeed="8.29" departDelay="0.19" arrival="262.00" arrivalLane="junctionNorth_0" arrivalPos="492.80" arrivalSpeed="7.49" duration="146.00" routeLength="995.01" waitingTime="1.00" waitingCount="1" stopTime="0.00" timeLoss="26.40" rerouteNo="0" devices="tripinfo_southNorth.11 ssm_southNorth.11" vType="carCustom" speedFactor="1.01" vaporized=""/>
    <tripinfo id="westEastBottom0.18" depart="196.00" departLane="westJunction_0" departPos="5.10" departSpeed="8.15" departDelay="0.58" arrival="263.00" arrivalLane="junctionEast_0" arrivalPos="492.80" arrivalSpeed="5.17" duration="67.00" routeLength="994.90" waitingTime="0.00" waitingCount="0" stopTime="0.00" timeLoss="6.70" rerouteNo="0" devices="tripinfo_westEastBottom0.18 ssm_westEastBottom0.18" vType="carCustom" speedFactor="0.85" vaporized="teleport"/>
    <tripinfo id="southNorth.12" depart="125.00" departLane="southJunction_1" departPos="5.10" departSpeed="7.05" departDelay="0.28" arrival="266.00" arrivalLane="junctionNorth_0" arrivalPos="492.80" arrivalSpeed="8.30" duration="141.00" routeLength="995.01" waitingTime="0.00" waitingCount="0" stopTime="0.00" timeLoss="21.46" rerouteNo="0" devices="tripinfo_southNorth.12 ssm_southNorth.12" vType="carCustom" speedFactor="0.98" vaporized=""/>
    <tripinfo id="southEast.10" depart="136.00" departLane="southJunction_0" departPos="5.10" departSpeed="7.08" departDelay="0.08" arrival="266.00" arrivalLane="junctionEast_0" arrivalPos="492.80" arrivalSpeed="7.65" duration="130.00" routeLength="989.53" waitingTime="0.00" waitingCount="0" stopTime="0.00" timeLoss="10.55" rerouteNo="0" devices="tripinfo_southEast.10 ssm_southEast.10" vType="carCustom" speedFactor="0.88" vaporized=""/>
    <tripinfo id="westEastTop.18" depart="87.00" departLane="westJunction_1" departPos="5.10" departSpeed="3.62" departDelay="9.19" arrival="268.00" arrivalLane="junctionEast_1" arrivalPos="492.80" arrivalSpeed="7.34" duration="181.00" routeLength="994.90" waitingTime="14.00" waitingCount="2" stopTime="0.00" timeLoss="61.12" rerouteNo="0" devices="tripinfo_westEastTop.18 ssm_westEastTop.18" vType="carCustom" speedFactor="1.06" vaporized=""/>
    <tripinfo id="westEastBottom0.14" depart="133.00" departLane="westJunction_0" departPos="5.10" departSpeed="7.74" departDelay="0.89" arrival="271.00" arrivalLane="junctionEast_0" arrivalPos="492.80" arrivalSpeed="7.10" duration="138.00" routeLength="994.90" waitingTime="2.00" waitingCount="1" stopTime="0.00" timeLoss="17.88" rerouteNo="0" devices="tripinfo_westEastBottom0.14 ssm_westEastBottom0.14" vType="carCustom" speedFactor="0.98" vaporized=""/>
    <tripinfo id="westEastTop.19" depart="91.00" departLane="westJunction_1" departPos="5.10" departSpeed="4.30" departDelay="4.26" arrival="272.00" arrivalLane="junctionEast_1" arrivalPos="492.80" arrivalSpeed="8.25" duration="181.00" routeLength="994.90" waitingTime="9.00" waitingCount="1" stopTime="0.00" timeLoss="61.19" rerouteNo="0" devices="tripinfo_westEastTop.19 ssm_westEastTop.19" vType="carCustom" speedFactor="1.04" vaporized=""/>
    <tripinfo id="southNorth.13" depart="128.00" departLane="southJunction_1" departPos="5.10" departSpeed="7.07" departDelay="2.48" arrival="273.00" arrivalLane="junctionNorth_0" arrivalPos="492.80" arrivalSpeed="7.29" duration="145.00" routeLength="995.01" waitingTime="4.00" waitingCount="1" stopTime="0.00" timeLoss="25.49" rerouteNo="0" devices="tripinfo_southNorth.13 ssm_southNorth.13" vType="carCustom" speedFactor="0.98" vaporized=""/>
    <tripinfo id="southEast.11" depart="139.00" departLane="southJunction_0" departPos="5.10" departSpeed="8.02" departDelay="0.03" arrival="275.00" arrivalLane="junctionEast_0" arrivalPos="492.80" arrivalSpeed="8.20" duration="136.00" routeLength="989.53" waitingTime="0.00" waitingCount="0" stopTime="0.00" timeLoss="16.12" rerouteNo="0" devices="tripinfo_southEast.11 ssm_southEast.11" vType="carCustom" speedFactor="0.70" vaporized=""/>
    <tripinfo id="southEast.19" depart="204.00" departLane="southJunction_0" departPos="5.10" departSpeed="7.28" departDelay="0.52" arrival="276.00" arrivalLane="junctionEast_0" arrivalPos="492.80" arrivalSpeed="5.24" duration="72.00" routeLength="989.53" waitingTime="0.00" waitingCount="0" stopTime="0.00" timeLoss="11.46" rerouteNo="0" devices="tripinfo_southEast.19 ssm_southEast.19" vType="carCustom" speedFactor="0.99" vaporized="teleport"/>