<?xml version="1.0" encoding="UTF-8"?>

<!-- generated on 2025-04-29 04:54:58 by Eclipse SUMO sumo Version 1.20.0
<configuration xmlns:xsi="http://www.w3.org/2001/XMLSchema-instance" xsi:noNamespaceSchemaLocation="http://sumo.dlr.de/xsd/sumoConfiguration.xsd">

    <input>
        <net-file value="nets/2lane_unprotected_right/2lane_unprotected_right.net.xml"/>
        <route-files value="nets/2lane_unprotected_right/2lane_unprotected_right.rou.xml"/>
    </input>

    <output>
        <tripinfo-output value="traces/transs50f0.5_s50_f1_random/0034_tripinfo.xml"/>
        <collision-output value="traces/transs50f0.5_s50_f1_random/0034_collisions.xml"/>
        <statistic-output value="traces/transs50f0.5_s50_f1_random/0034_statistics.xml"/>
    </output>

    <processing>
        <collision.action value="teleport"/>
        <collision.check-junctions value="true"/>
        <time-to-teleport value="-1"/>
        <waiting-time-memory value="1000"/>
        <max-depart-delay value="-1"/>
        <default.speeddev value="0.1"/>
    </processing>

    <report>
        <no-warnings value="true"/>
    </report>

    <ssm_device>
        <device.ssm.probability value="1.0"/>
        <device.ssm.measures value="BR"/>
        <device.ssm.file value="/Users/finn/Code/CausalKnowledgeTransfer-4-SafeRL/traces/transs50f0.5_s50_f1_random/0034_ssm.xml"/>
    </ssm_device>

    <traci_server>
        <remote-port value="62809"/>
    </traci_server>

    <random_number>
        <random value="true"/>
    </random_number>

</configuration>
-->

<tripinfos xmlns:xsi="http://www.w3.org/2001/XMLSchema-instance" xsi:noNamespaceSchemaLocation="http://sumo.dlr.de/xsd/tripinfo_file.xsd">
    <tripinfo id="westEastTop.0" depart="2.00" departLane="westJunction_1" departPos="5.10" departSpeed="13.89" departDelay="0.01" arrival="78.00" arrivalLane="junctionEast_0" arrivalPos="492.80" arrivalSpeed="13.48" duration="76.00" routeLength="994.90" waitingTime="0.00" waitingCount="0" stopTime="0.00" timeLoss="3.48" rerouteNo="0" devices="tripinfo_westEastTop.0 ssm_westEastTop.0" vType="carCustom" speedFactor="1.16" vaporized=""/>
    <tripinfo id="southNorth.0" depart="6.00" departLane="southJunction_1" departPos="5.10" departSpeed="13.89" departDelay="0.22" arrival="82.00" arrivalLane="junctionNorth_0" arrivalPos="492.80" arrivalSpeed="13.64" duration="76.00" routeLength="995.01" waitingTime="0.00" waitingCount="0" stopTime="0.00" timeLoss="3.44" rerouteNo="0" devices="tripinfo_southNorth.0 ssm_southNorth.0" vType="carCustom" speedFactor="0.92" vaporized=""/>
    <tripinfo id="southEast.0" depart="7.00" departLane="southJunction_0" departPos="5.10" departSpeed="13.89" departDelay="0.92" arrival="84.00" arrivalLane="junctionEast_0" arrivalPos="492.80" arrivalSpeed="13.53" duration="77.00" routeLength="989.53" waitingTime="0.00" waitingCount="0" stopTime="0.00" timeLoss="5.10" rerouteNo="0" devices="tripinfo_southEast.0 ssm_southEast.0" vType="carCustom" speedFactor="0.95" vaporized=""/>
    <tripinfo id="westEastTop.1" depart="5.00" departLane="westJunction_1" departPos="5.10" departSpeed="13.02" departDelay="0.71" arrival="87.00" arrivalLane="junctionEast_0" arrivalPos="492.80" arrivalSpeed="13.62" duration="82.00" routeLength="994.90" waitingTime="1.00" waitingCount="1" stopTime="0.00" timeLoss="9.55" rerouteNo="0" devices="tripinfo_westEastTop.1 ssm_westEastTop.1" vType="carCustom" speedFactor="0.97" vaporized=""/>
    <tripinfo id="westEastTop.2" depart="11.00" departLane="westJunction_1" departPos="5.10" departSpeed="13.41" departDelay="0.23" arrival="89.00" arrivalLane="junctionEast_0" arrivalPos="492.80" arrivalSpeed="13.58" duration="78.00" routeLength="994.90" waitingTime="0.00" waitingCount="0" stopTime="0.00" timeLoss="5.51" rerouteNo="0" devices="tripinfo_westEastTop.2 ssm_westEastTop.2" vType="carCustom" speedFactor="1.04" vaporized=""/>
    <tripinfo id="westEastTop.3" depart="16.00" departLane="westJunction_1" departPos="5.10" departSpeed="12.78" departDelay="0.48" arrival="96.00" arrivalLane="junctionEast_0" arrivalPos="492.80" arrivalSpeed="13.54" duration="80.00" routeLength="994.90" waitingTime="0.00" waitingCount="0" stopTime="0.00" timeLoss="8.30" rerouteNo="0" devices="tripinfo_westEastTop.3 ssm_westEastTop.3" vType="carCustom" speedFactor="1.00" vaporized=""/>
    <tripinfo id="southNorth.1" depart="29.00" departLane="southJunction_1" departPos="5.10" departSpeed="13.23" departDelay="0.73" arrival="105.00" arrivalLane="junctionNorth_0" arrivalPos="492.80" arrivalSpeed="13.15" duration="76.00" routeLength="995.01" waitingTime="0.00" waitingCount="0" stopTime="0.00" timeLoss="4.15" rerouteNo="0" devices="tripinfo_southNorth.1 ssm_southNorth.1" vType="carCustom" speedFactor="0.78" vaporized=""/>
    <tripinfo id="southNorth.2" depart="31.00" departLane="southJunction_1" departPos="5.10" departSpeed="12.62" departDelay="0.98" arrival="107.00" arrivalLane="junctionNorth_0" arrivalPos="492.80" arrivalSpeed="13.52" duration="76.00" routeLength="995.01" waitingTime="0.00" waitingCount="0" stopTime="0.00" timeLoss="3.89" rerouteNo="0" devices="tripinfo_southNorth.2 ssm_southNorth.2" vType="carCustom" speedFactor="1.16" vaporized=""/>
    <tripinfo id="southEast.1" depart="31.00" departLane="southJunction_0" departPos="5.10" departSpeed="13.85" departDelay="0.80" arrival="110.00" arrivalLane="junctionEast_0" arrivalPos="492.80" arrivalSpeed="13.05" duration="79.00" routeLength="989.53" waitingTime="0.00" waitingCount="0" stopTime="0.00" timeLoss="6.08" rerouteNo="0" devices="tripinfo_southEast.1 ssm_southEast.1" vType="carCustom" speedFactor="0.98" vaporized=""/>
    <tripinfo id="southEast.2" depart="33.00" departLane="southJunction_0" departPos="5.10" departSpeed="12.63" departDelay="2.71" arrival="113.00" arrivalLane="junctionEast_0" arrivalPos="492.80" arrivalSpeed="13.54" duration="80.00" routeLength="989.53" waitingTime="0.00" waitingCount="0" stopTime="0.00" timeLoss="7.18" rerouteNo="0" devices="tripinfo_southEast.2 ssm_southEast.2" vType="carCustom" speedFactor="0.87" vaporized=""/>
    <tripinfo id="westEastTop.4" depart="38.00" departLane="westJunction_1" departPos="5.10" departSpeed="13.85" departDelay="0.76" arrival="113.00" arrivalLane="junctionEast_1" arrivalPos="492.80" arrivalSpeed="13.80" duration="75.00" routeLength="994.90" waitingTime="0.00" waitingCount="0" stopTime="0.00" timeLoss="3.29" rerouteNo="0" devices="tripinfo_westEastTop.4 ssm_westEastTop.4" vType="carCustom" speedFactor="1.14" vaporized=""/>
    <tripinfo id="southEast.3" depart="35.00" departLane="southJunction_0" departPos="5.10" departSpeed="13.22" departDelay="1.02" arrival="115.00" arrivalLane="junctionEast_0" arrivalPos="492.80" arrivalSpeed="13.32" duration="80.00" routeLength="989.53" waitingTime="0.00" waitingCount="0" stopTime="0.00" timeLoss="7.43" rerouteNo="0" devices="tripinfo_southEast.3 ssm_southEast.3" vType="carCustom" speedFactor="1.00" vaporized=""/>
    <tripinfo id="southNorth.3" depart="40.00" departLane="southJunction_1" departPos="5.10" departSpeed="12.93" departDelay="0.02" arrival="115.00" arrivalLane="junctionNorth_0" arrivalPos="492.80" arrivalSpeed="12.81" duration="75.00" routeLength="995.01" waitingTime="0.00" waitingCount="0" stopTime="0.00" timeLoss="3.34" rerouteNo="0" devices="tripinfo_southNorth.3 ssm_southNorth.3" vType="carCustom" speedFactor="0.94" vaporized=""/>
    <tripinfo id="southEast.4" depart="37.00" departLane="southJunction_0" departPos="5.10" departSpeed="13.41" departDelay="2.91" arrival="117.00" arrivalLane="junctionEast_0" arrivalPos="492.80" arrivalSpeed="13.17" duration="80.00" routeLength="989.53" waitingTime="0.00" waitingCount="0" stopTime="0.00" timeLoss="8.19" rerouteNo="0" devices="tripinfo_southEast.4 ssm_southEast.4" vType="carCustom" speedFactor="1.00" vaporized=""/>
    <tripinfo id="southNorth.4" depart="42.00" departLane="southJunction_1" departPos="5.10" departSpeed="13.40" departDelay="1.45" arrival="118.00" arrivalLane="junctionNorth_0" arrivalPos="492.80" arrivalSpeed="12.67" duration="76.00" routeLength="995.01" waitingTime="0.00" waitingCount="0" stopTime="0.00" timeLoss="3.56" rerouteNo="0" devices="tripinfo_southNorth.4 ssm_southNorth.4" vType="carCustom" speedFactor="0.83" vaporized=""/>
    <tripinfo id="westEastTop.5" depart="43.00" departLane="westJunction_1" departPos="5.10" departSpeed="13.80" departDelay="0.01" arrival="120.00" arrivalLane="junctionEast_0" arrivalPos="492.80" arrivalSpeed="12.68" duration="77.00" routeLength="994.90" waitingTime="0.00" waitingCount="0" stopTime="0.00" timeLoss="4.48" rerouteNo="0" devices="tripinfo_westEastTop.5 ssm_westEastTop.5" vType="carCustom" speedFactor="0.97" vaporized=""/>
    <tripinfo id="westEastBottom0.0" depart="39.00" departLane="westJunction_0" departPos="5.10" departSpeed="13.89" departDelay="0.33" arrival="122.00" arrivalLane="junctionEast_0" arrivalPos="492.80" arrivalSpeed="13.73" duration="83.00" routeLength="994.90" waitingTime="3.00" waitingCount="1" stopTime="0.00" timeLoss="10.72" rerouteNo="0" devices="tripinfo_westEastBottom0.0 ssm_westEastBottom0.0" vType="carCustom" speedFactor="1.02" vaporized=""/>
    <tripinfo id="westEastTop.6" depart="47.00" departLane="westJunction_1" departPos="5.10" departSpeed="13.33" departDelay="0.60" arrival="123.00" arrivalLane="junctionEast_1" arrivalPos="492.80" arrivalSpeed="13.77" duration="76.00" routeLength="994.90" waitingTime="0.00" waitingCount="0" stopTime="0.00" timeLoss="3.40" rerouteNo="0" devices="tripinfo_westEastTop.6 ssm_westEastTop.6" vType="carCustom" speedFactor="1.12" vaporized=""/>
    <tripinfo id="southEast.5" depart="43.00" departLane="southJunction_0" departPos="5.10" departSpeed="13.35" departDelay="0.93" arrival="126.00" arrivalLane="junctionEast_0" arrivalPos="492.80" arrivalSpeed="13.71" duration="83.00" routeLength="989.53" waitingTime="2.00" waitingCount="1" stopTime="0.00" timeLoss="10.98" rerouteNo="0" devices="tripinfo_southEast.5 ssm_southEast.5" vType="carCustom" speedFactor="0.84" vaporized=""/>
    <tripinfo id="southNorth.5" depart="46.00" departLane="southJunction_1" departPos="5.10" departSpeed="12.97" departDelay="0.90" arrival="126.00" arrivalLane="junctionNorth_0" arrivalPos="492.80" arrivalSpeed="13.28" duration="80.00" routeLength="995.01" waitingTime="0.00" waitingCount="0" stopTime="0.00" timeLoss="7.85" rerouteNo="0" devices="tripinfo_southNorth.5 ssm_southNorth.5" vType="carCustom" speedFactor="1.07" vaporized=""/>
    <tripinfo id="westEastBottom0.1" depart="52.00" departLane="westJunction_0" departPos="5.10" departSpeed="12.60" departDelay="0.20" arrival="130.00" arrivalLane="junctionEast_0" arrivalPos="492.80" arrivalSpeed="13.46" duration="78.00" routeLength="994.90" waitingTime="0.00" waitingCount="0" stopTime="0.00" timeLoss="6.38" rerouteNo="0" devices="tripinfo_westEastBottom0.1 ssm_westEastBottom0.1" vType="carCustom" speedFactor="0.95" vaporized=""/>
    <tripinfo id="westEastTop.7" depart="52.00" departLane="westJunction_1" departPos="5.10" departSpeed="13.77" departDelay="0.39" arrival="131.00" arrivalLane="junctionEast_0" arrivalPos="492.80" arrivalSpeed="13.76" duration="79.00" routeLength="994.90" waitingTime="0.00" waitingCount="0" stopTime="0.00" timeLoss="6.48" rerouteNo="0" devices="tripinfo_westEastTop.7 ssm_westEastTop.7" vType="carCustom" speedFactor="1.09" vaporized=""/>
    <tripinfo id="westEastTop.8" depart="56.00" departLane="westJunction_1" departPos="5.10" departSpeed="13.62" departDelay="0.85" arrival="132.00" arrivalLane="junctionEast_1" arrivalPos="492.80" arrivalSpeed="13.87" duration="76.00" routeLength="994.90" waitingTime="0.00" waitingCount="0" stopTime="0.00" timeLoss="4.35" rerouteNo="0" devices="tripinfo_westEastTop.8 ssm_westEastTop.8" vType="carCustom" speedFactor="0.92" vaporized=""/>
    <tripinfo id="westEastBottom0.2" depart="54.00" departLane="westJunction_0" departPos="5.10" departSpeed="13.30" departDelay="1.98" arrival="133.00" arrivalLane="junctionEast_0" arrivalPos="492.80" arrivalSpeed="12.77" duration="79.00" routeLength="994.90" waitingTime="0.00" waitingCount="0" stopTime="0.00" timeLoss="6.66" rerouteNo="0" devices="tripinfo_westEastBottom0.2 ssm_westEastBottom0.2" vType="carCustom" speedFactor="0.91" vaporized=""/>
    <tripinfo id="southEast.6" depart="62.00" departLane="southJunction_0" departPos="5.10" departSpeed="13.56" departDelay="0.69" arrival="140.00" arrivalLane="junctionEast_0" arrivalPos="492.80" arrivalSpeed="13.21" duration="78.00" routeLength="989.53" waitingTime="0.00" waitingCount="0" stopTime="0.00" timeLoss="5.28" rerouteNo="0" devices="tripinfo_southEast.6 ssm_southEast.6" vType="carCustom" speedFactor="0.86" vaporized=""/>
    <tripinfo id="westEastBottom0.3" depart="56.00" departLane="westJunction_0" departPos="5.10" departSpeed="13.23" departDelay="3.64" arrival="141.00" arrivalLane="junctionEast_0" arrivalPos="492.80" arrivalSpeed="13.25" duration="85.00" routeLength="994.90" waitingTime="3.00" waitingCount="1" stopTime="0.00" timeLoss="13.37" rerouteNo="0" devices="tripinfo_westEastBottom0.3 ssm_westEastBottom0.3" vType="carCustom" speedFactor="0.82" vaporized=""/>
    <tripinfo id="westEastTop.9" depart="58.00" departLane="westJunction_1" departPos="5.10" departSpeed="12.97" departDelay="2.04" arrival="142.00" arrivalLane="junctionEast_1" arrivalPos="492.80" arrivalSpeed="13.74" duration="84.00" routeLength="994.90" waitingTime="2.00" waitingCount="1" stopTime="0.00" timeLoss="11.98" rerouteNo="0" devices="tripinfo_westEastTop.9 ssm_westEastTop.9" vType="carCustom" speedFactor="1.13" vaporized=""/>
    <tripinfo id="southEast.7" depart="67.00" departLane="southJunction_0" departPos="5.10" departSpeed="12.74" departDelay="0.07" arrival="145.00" arrivalLane="junctionEast_0" arrivalPos="492.80" arrivalSpeed="13.44" duration="78.00" routeLength="989.53" waitingTime="0.00" waitingCount="0" stopTime="0.00" timeLoss="6.23" rerouteNo="0" devices="tripinfo_southEast.7 ssm_southEast.7" vType="carCustom" speedFactor="1.06" vaporized=""/>
    <tripinfo id="westEastBottom0.4" depart="74.00" departLane="westJunction_0" departPos="5.10" departSpeed="12.63" departDelay="0.26" arrival="151.00" arrivalLane="junctionEast_0" arrivalPos="492.80" arrivalSpeed="13.45" duration="77.00" routeLength="994.90" waitingTime="0.00" waitingCount="0" stopTime="0.00" timeLoss="4.45" rerouteNo="0" devices="tripinfo_westEastBottom0.4 ssm_westEastBottom0.4" vType="carCustom" speedFactor="0.94" vaporized=""/>
    <tripinfo id="southEast.8" depart="76.00" departLane="southJunction_0" departPos="5.10" departSpeed="13.04" departDelay="0.01" arrival="157.00" arrivalLane="junctionEast_0" arrivalPos="492.80" arrivalSpeed="12.83" duration="81.00" routeLength="989.53" waitingTime="0.00" waitingCount="0" stopTime="0.00" timeLoss="9.12" rerouteNo="0" devices="tripinfo_southEast.8 ssm_southEast.8" vType="carCustom" speedFactor="1.07" vaporized=""/>
    <tripinfo id="southNorth.6" depart="81.00" departLane="southJunction_1" departPos="5.10" departSpeed="13.56" departDelay="0.74" arrival="157.00" arrivalLane="junctionNorth_0" arrivalPos="492.80" arrivalSpeed="12.90" duration="76.00" routeLength="995.01" waitingTime="0.00" waitingCount="0" stopTime="0.00" timeLoss="3.89" rerouteNo="0" devices="tripinfo_southNorth.6 ssm_southNorth.6" vType="carCustom" speedFactor="0.96" vaporized=""/>
    <tripinfo id="southEast.9" depart="81.00" departLane="southJunction_0" departPos="5.10" departSpeed="12.92" departDelay="0.11" arrival="160.00" arrivalLane="junctionEast_0" arrivalPos="492.80" arrivalSpeed="13.13" duration="79.00" routeLength="989.53" waitingTime="0.00" waitingCount="0" stopTime="0.00" timeLoss="6.67" rerouteNo="0" devices="tripinfo_southEast.9 ssm_southEast.9" vType="carCustom" speedFactor="1.06" vaporized=""/>
    <tripinfo id="westEastBottom0.5" depart="84.00" departLane="westJunction_0" departPos="5.10" departSpeed="12.83" departDelay="0.50" arrival="162.00" arrivalLane="junctionEast_0" arrivalPos="492.80" arrivalSpeed="12.99" duration="78.00" routeLength="994.90" waitingTime="0.00" waitingCount="0" stopTime="0.00" timeLoss="6.16" rerouteNo="0" devices="tripinfo_westEastBottom0.5 ssm_westEastBottom0.5" vType="carCustom" speedFactor="1.16" vaporized=""/>
    <tripinfo id="westEastTop.10" depart="79.00" departLane="westJunction_1" departPos="5.10" departSpeed="12.79" departDelay="0.50" arrival="163.00" arrivalLane="junctionEast_1" arrivalPos="492.80" arrivalSpeed="12.73" duration="84.00" routeLength="994.90" waitingTime="3.00" waitingCount="1" stopTime="0.00" timeLoss="12.12" rerouteNo="0" devices="tripinfo_westEastTop.10 ssm_westEastTop.10" vType="carCustom" speedFactor="1.22" vaporized=""/>
    <tripinfo id="westEastBottom0.6" depart="86.00" departLane="westJunction_0" departPos="5.10" departSpeed="13.70" departDelay="1.03" arrival="164.00" arrivalLane="junctionEast_0" arrivalPos="492.80" arrivalSpeed="13.88" duration="78.00" routeLength="994.90" waitingTime="0.00" waitingCount="0" stopTime="0.00" timeLoss="6.21" rerouteNo="0" devices="tripinfo_westEastBottom0.6 ssm_westEastBottom0.6" vType="carCustom" speedFactor="0.99" vaporized=""/>
    <tripinfo id="westEastTop.11" depart="82.00" departLane="westJunction_1" departPos="5.10" departSpeed="12.86" departDelay="0.97" arrival="165.00" arrivalLane="junctionEast_1" arrivalPos="492.80" arrivalSpeed="13.09" duration="83.00" routeLength="994.90" waitingTime="1.00" waitingCount="1" stopTime="0.00" timeLoss="11.09" rerouteNo="0" devices="tripinfo_westEastTop.11 ssm_westEastTop.11" vType="carCustom" speedFactor="1.15" vaporized=""/>
    <tripinfo id="southEast.10" depart="88.00" departLane="southJunction_0" departPos="5.10" departSpeed="13.22" departDelay="0.22" arrival="166.00" arrivalLane="junctionEast_0" arrivalPos="492.80" arrivalSpeed="13.56" duration="78.00" routeLength="989.53" waitingTime="0.00" waitingCount="0" stopTime="0.00" timeLoss="6.17" rerouteNo="0" devices="tripinfo_southEast.10 ssm_southEast.10" vType="carCustom" speedFactor="0.96" vaporized=""/>
    <tripinfo id="westEastTop.12" depart="85.00" departLane="westJunction_1" departPos="5.10" departSpeed="13.45" departDelay="0.40" arrival="167.00" arrivalLane="junctionEast_1" arrivalPos="492.80" arrivalSpeed="12.64" duration="82.00" routeLength="994.90" waitingTime="0.00" waitingCount="0" stopTime="0.00" timeLoss="9.92" rerouteNo="0" devices="tripinfo_westEastTop.12 ssm_westEastTop.12" vType="carCustom" speedFactor="1.02" vaporized=""/>
    <tripinfo id="westEastTop.13" depart="87.00" departLane="westJunction_1" departPos="5.10" departSpeed="12.94" departDelay="0.73" arrival="169.00" arrivalLane="junctionEast_0" arrivalPos="492.80" arrivalSpeed="13.02" duration="82.00" routeLength="994.90" waitingTime="0.00" waitingCount="0" stopTime="0.00" timeLoss="9.65" rerouteNo="0" devices="tripinfo_westEastTop.13 ssm_westEastTop.13" vType="carCustom" speedFactor="1.06" vaporized=""/>
    <tripinfo id="westEastTop.14" depart="89.00" departLane="westJunction_1" departPos="5.10" departSpeed="13.01" departDelay="1.76" arrival="170.00" arrivalLane="junctionEast_1" arrivalPos="492.80" arrivalSpeed="13.49" duration="81.00" routeLength="994.90" waitingTime="0.00" waitingCount="0" stopTime="0.00" timeLoss="9.34" rerouteNo="0" devices="tripinfo_westEastTop.14 ssm_westEastTop.14" vType="carCustom" speedFactor="1.05" vaporized=""/>
    <tripinfo id="westEastBottom0.7" depart="95.00" departLane="westJunction_0" departPos="5.10" departSpeed="12.79" departDelay="0.01" arrival="171.00" arrivalLane="junctionEast_0" arrivalPos="492.80" arrivalSpeed="12.98" duration="76.00" routeLength="994.90" waitingTime="0.00" waitingCount="0" stopTime="0.00" timeLoss="3.73" rerouteNo="0" devices="tripinfo_westEastBottom0.7 ssm_westEastBottom0.7" vType="carCustom" speedFactor="0.96" vaporized=""/>
    <tripinfo id="westEastTop.15" depart="91.00" departLane="westJunction_1" departPos="5.10" departSpeed="12.76" departDelay="3.47" arrival="172.00" arrivalLane="junctionEast_1" arrivalPos="492.80" arrivalSpeed="13.65" duration="81.00" routeLength="994.90" waitingTime="0.00" waitingCount="0" stopTime="0.00" timeLoss="9.22" rerouteNo="0" devices="tripinfo_westEastTop.15 ssm_westEastTop.15" vType="carCustom" speedFactor="0.94" vaporized=""/>
    <tripinfo id="westEastTop.16" depart="94.00" departLane="westJunction_1" departPos="5.10" departSpeed="13.52" departDelay="0.22" arrival="180.00" arrivalLane="junctionEast_1" arrivalPos="492.80" arrivalSpeed="13.38" duration="86.00" routeLength="994.90" waitingTime="2.00" waitingCount="1" stopTime="0.00" timeLoss="14.28" rerouteNo="0" devices="tripinfo_westEastTop.16 ssm_westEastTop.16" vType="carCustom" speedFactor="1.09" vaporized=""/>
    <tripinfo id="westEastBottom0.8" depart="100.00" departLane="westJunction_0" departPos="5.10" departSpeed="12.76" departDelay="0.77" arrival="181.00" arrivalLane="junctionEast_0" arrivalPos="492.80" arrivalSpeed="13.17" duration="81.00" routeLength="994.90" waitingTime="0.00" waitingCount="0" stopTime="0.00" timeLoss="8.65" rerouteNo="0" devices="tripinfo_westEastBottom0.8 ssm_westEastBottom0.8" vType="carCustom" speedFactor="1.01" vaporized=""/>
    <tripinfo id="westEastTop.17" depart="98.00" departLane="westJunction_1" departPos="5.10" departSpeed="13.03" departDelay="0.24" arrival="182.00" arrivalLane="junctionEast_1" arrivalPos="492.80" arrivalSpeed="13.12" duration="84.00" routeLength="994.90" waitingTime="0.00" waitingCount="0" stopTime="0.00" timeLoss="12.31" rerouteNo="0" devices="tripinfo_westEastTop.17 ssm_westEastTop.17" vType="carCustom" speedFactor="0.96" vaporized=""/>
    <tripinfo id="westEastBottom0.9" depart="106.00" departLane="westJunction_0" departPos="5.10" departSpeed="13.49" departDelay="0.74" arrival="183.00" arrivalLane="junctionEast_0" arrivalPos="492.80" arrivalSpeed="12.69" duration="77.00" routeLength="994.90" waitingTime="0.00" waitingCount="0" stopTime="0.00" timeLoss="4.75" rerouteNo="0" devices="tripinfo_westEastBottom0.9 ssm_westEastBottom0.9" vType="carCustom" speedFactor="1.09" vaporized=""/>
    <tripinfo id="westEastBottom0.10" depart="115.00" departLane="westJunction_0" departPos="5.10" departSpeed="13.70" departDelay="0.60" arrival="190.00" arrivalLane="junctionEast_0" arrivalPos="492.80" arrivalSpeed="13.72" duration="75.00" routeLength="994.90" waitingTime="0.00" waitingCount="0" stopTime="0.00" timeLoss="3.21" rerouteNo="0" devices="tripinfo_westEastBottom0.10 ssm_westEastBottom0.10" vType="carCustom" speedFactor="0.92" vaporized=""/>
    <tripinfo id="westEastTop.18" depart="105.00" departLane="westJunction_1" departPos="5.10" departSpeed="12.85" departDelay="0.46" arrival="191.00" arrivalLane="junctionEast_1" arrivalPos="492.80" arrivalSpeed="13.31" duration="86.00" routeLength="994.90" waitingTime="1.00" waitingCount="1" stopTime="0.00" timeLoss="14.05" rerouteNo="0" devices="tripinfo_westEastTop.18 ssm_westEastTop.18" vType="carCustom" speedFactor="0.79" vaporized=""/>
    <tripinfo id="southNorth.7" depart="114.00" departLane="southJunction_1" departPos="5.10" departSpeed="13.09" departDelay="0.80" arrival="195.00" arrivalLane="junctionNorth_0" arrivalPos="492.80" arrivalSpeed="12.65" duration="81.00" routeLength="995.01" waitingTime="2.00" waitingCount="1" stopTime="0.00" timeLoss="9.28" rerouteNo="0" devices="tripinfo_southNorth.7 ssm_southNorth.7" vType="carCustom" speedFactor="1.03" vaporized=""/>
    <tripinfo id="southEast.11" depart="112.00" departLane="southJunction_0" departPos="5.10" departSpeed="12.93" departDelay="0.60" arrival="196.00" arrivalLane="junctionEast_0" arrivalPos="492.80" arrivalSpeed="13.84" duration="84.00" routeLength="989.53" waitingTime="3.00" waitingCount="1" stopTime="0.00" timeLoss="11.44" rerouteNo="0" devices="tripinfo_southEast.11 ssm_southEast.11" vType="carCustom" speedFactor="0.92" vaporized=""/>
    <tripinfo id="southNorth.8" depart="117.00" departLane="southJunction_1" departPos="5.10" departSpeed="13.01" departDelay="0.32" arrival="197.00" arrivalLane="junctionNorth_0" arrivalPos="492.80" arrivalSpeed="13.01" duration="80.00" routeLength="995.01" waitingTime="0.00" waitingCount="0" stopTime="0.00" timeLoss="8.33" rerouteNo="0" devices="tripinfo_southNorth.8 ssm_southNorth.8" vType="carCustom" speedFactor="1.05" vaporized=""/>
    <tripinfo id="southEast.12" depart="115.00" departLane="southJunction_0" departPos="5.10" departSpeed="13.31" departDelay="0.62" arrival="198.00" arrivalLane="junctionEast_0" arrivalPos="492.80" arrivalSpeed="13.64" duration="83.00" routeLength="989.53" waitingTime="0.00" waitingCount="0" stopTime="0.00" timeLoss="10.52" rerouteNo="0" devices="tripinfo_southEast.12 ssm_southEast.12" vType="carCustom" speedFactor="1.13" vaporized=""/>
    <tripinfo id="westEastTop.19" depart="111.00" departLane="westJunction_1" departPos="5.10" departSpeed="13.17" departDelay="0.18" arrival="201.00" arrivalLane="junctionEast_0" arrivalPos="492.80" arrivalSpeed="13.22" duration="90.00" routeLength="994.90" waitingTime="7.00" waitingCount="2" stopTime="0.00" timeLoss="17.81" rerouteNo="0" devices="tripinfo_westEastTop.19 ssm_westEastTop.19" vType="carCustom" speedFactor="0.81" vaporized=""/>
    <tripinfo id="westEastTop.20" depart="115.00" departLane="westJunction_1" departPos="5.10" departSpeed="13.36" departDelay="0.29" arrival="203.00" arrivalLane="junctionEast_0" arrivalPos="492.80" arrivalSpeed="12.81" duration="88.00" routeLength="994.90" waitingTime="3.00" waitingCount="1" stopTime="0.00" timeLoss="15.91" rerouteNo="0" devices="tripinfo_westEastTop.20 ssm_westEastTop.20" vType="carCustom" speedFactor="1.04" vaporized=""/>
    <tripinfo id="southNorth.9" depart="119.00" departLane="southJunction_1" departPos="5.10" departSpeed="13.05" departDelay="1.50" arrival="206.00" arrivalLane="junctionNorth_0" arrivalPos="492.80" arrivalSpeed="13.04" duration="87.00" routeLength="995.01" waitingTime="3.00" waitingCount="1" stopTime="0.00" timeLoss="14.56" rerouteNo="0" devices="tripinfo_southNorth.9 ssm_southNorth.9" vType="carCustom" speedFactor="1.03" vaporized=""/>
    <tripinfo id="southEast.13" depart="131.00" departLane="southJunction_0" departPos="5.10" departSpeed="12.64" departDelay="0.76" arrival="208.00" arrivalLane="junctionEast_0" arrivalPos="492.80" arrivalSpeed="13.68" duration="77.00" routeLength="989.53" waitingTime="0.00" waitingCount="0" stopTime="0.00" timeLoss="5.00" rerouteNo="0" devices="tripinfo_southEast.13 ssm_southEast.13" vType="carCustom" speedFactor="1.08" vaporized=""/>
    <tripinfo id="southEast.14" depart="133.00" departLane="southJunction_0" departPos="5.10" departSpeed="13.41" departDelay="0.41" arrival="211.00" arrivalLane="junctionEast_0" arrivalPos="492.80" arrivalSpeed="12.61" duration="78.00" routeLength="989.53" waitingTime="0.00" waitingCount="0" stopTime="0.00" timeLoss="5.22" rerouteNo="0" devices="tripinfo_southEast.14 ssm_southEast.14" vType="carCustom" speedFactor="0.95" vaporized=""/>
    <tripinfo id="westEastTop.21" depart="139.00" departLane="westJunction_1" departPos="5.10" departSpeed="13.82" departDelay="0.00" arrival="217.00" arrivalLane="junctionEast_1" arrivalPos="492.80" arrivalSpeed="13.60" duration="78.00" routeLength="994.90" waitingTime="0.00" waitingCount="0" stopTime="0.00" timeLoss="5.89" rerouteNo="0" devices="tripinfo_westEastTop.21 ssm_westEastTop.21" vType="carCustom" speedFactor="1.16" vaporized=""/>
    <tripinfo id="westEastBottom0.11" depart="140.00" departLane="westJunction_0" departPos="5.10" departSpeed="13.41" departDelay="0.38" arrival="217.00" arrivalLane="junctionEast_0" arrivalPos="492.80" arrivalSpeed="13.70" duration="77.00" routeLength="994.90" waitingTime="0.00" waitingCount="0" stopTime="0.00" timeLoss="4.57" rerouteNo="0" devices="tripinfo_westEastBottom0.11 ssm_westEastBottom0.11" vType="carCustom" speedFactor="0.76" vaporized=""/>
    <tripinfo id="westEastTop.22" depart="141.00" departLane="westJunction_1" departPos="5.10" departSpeed="12.81" departDelay="0.64" arrival="219.00" arrivalLane="junctionEast_1" arrivalPos="492.80" arrivalSpeed="13.04" duration="78.00" routeLength="994.90" waitingTime="0.00" waitingCount="0" stopTime="0.00" timeLoss="6.14" rerouteNo="0" devices="tripinfo_westEastTop.22 ssm_westEastTop.22" vType="carCustom" speedFactor="1.05" vaporized=""/>
    <tripinfo id="westEastBottom0.12" depart="143.00" departLane="westJunction_0" departPos="5.10" departSpeed="12.96" departDelay="0.11" arrival="219.00" arrivalLane="junctionEast_0" arrivalPos="492.80" arrivalSpeed="13.16" duration="76.00" routeLength="994.90" waitingTime="0.00" waitingCount="0" stopTime="0.00" timeLoss="3.53" rerouteNo="0" devices="tripinfo_westEastBottom0.12 ssm_westEastBottom0.12" vType="carCustom" speedFactor="0.99" vaporized=""/>
    <tripinfo id="southNorth.10" depart="146.00" departLane="southJunction_1" departPos="5.10" departSpeed="12.76" departDelay="0.08" arrival="222.00" arrivalLane="junctionNorth_0" arrivalPos="492.80" arrivalSpeed="13.22" duration="76.00" routeLength="995.01" waitingTime="0.00" waitingCount="0" stopTime="0.00" timeLoss="3.79" rerouteNo="0" devices="tripinfo_southNorth.10 ssm_southNorth.10" vType="carCustom" speedFactor="0.96" vaporized=""/>
    <tripinfo id="southEast.15" depart="143.00" departLane="southJunction_0" departPos="5.10" departSpeed="13.19" departDelay="0.61" arrival="223.00" arrivalLane="junctionEast_0" arrivalPos="492.80" arrivalSpeed="13.59" duration="80.00" routeLength="989.53" waitingTime="0.00" waitingCount="0" stopTime="0.00" timeLoss="8.33" rerouteNo="0" devices="tripinfo_southEast.15 ssm_southEast.15" vType="carCustom" speedFactor="1.11" vaporized=""/>