<?xml version="1.0" encoding="UTF-8"?>

<!-- generated on 2025-04-29 04:58:25 by Eclipse SUMO sumo Version 1.20.0
<configuration xmlns:xsi="http://www.w3.org/2001/XMLSchema-instance" xsi:noNamespaceSchemaLocation="http://sumo.dlr.de/xsd/sumoConfiguration.xsd">

    <input>
        <net-file value="nets/2lane_unprotected_right/2lane_unprotected_right.net.xml"/>
        <route-files value="nets/2lane_unprotected_right/2lane_unprotected_right.rou.xml"/>
    </input>

    <output>
        <tripinfo-output value="traces/transs50f0.5_s50_f1_random/0037_tripinfo.xml"/>
        <collision-output value="traces/transs50f0.5_s50_f1_random/0037_collisions.xml"/>
        <statistic-output value="traces/transs50f0.5_s50_f1_random/0037_statistics.xml"/>
    </output>

    <processing>
        <collision.action value="teleport"/>
        <collision.check-junctions value="true"/>
        <time-to-teleport value="-1"/>
        <waiting-time-memory value="1000"/>
        <max-depart-delay value="-1"/>
        <default.speeddev value="0.1"/>
    </processing>

    <report>
        <no-warnings value="true"/>
    </report>

    <ssm_device>
        <device.ssm.probability value="1.0"/>
        <device.ssm.measures value="BR"/>
        <device.ssm.file value="/Users/finn/Code/CausalKnowledgeTransfer-4-SafeRL/traces/transs50f0.5_s50_f1_random/0037_ssm.xml"/>
    </ssm_device>

    <traci_server>
        <remote-port value="62845"/>
    </traci_server>

    <random_number>
        <random value="true"/>
    </random_number>

</configuration>
-->

<tripinfos xmlns:xsi="http://www.w3.org/2001/XMLSchema-instance" xsi:noNamespaceSchemaLocation="http://sumo.dlr.de/xsd/tripinfo_file.xsd">
    <tripinfo id="southNorth.0" depart="4.00" departLane="southJunction_1" departPos="5.10" departSpeed="27.78" departDelay="0.01" arrival="43.00" arrivalLane="junctionNorth_0" arrivalPos="492.80" arrivalSpeed="26.79" duration="39.00" routeLength="995.01" waitingTime="0.00" waitingCount="0" stopTime="0.00" timeLoss="2.34" rerouteNo="0" devices="tripinfo_southNorth.0 ssm_southNorth.0" vType="carCustom" speedFactor="1.12" vaporized=""/>
    <tripinfo id="southEast.0" depart="1.00" departLane="southJunction_0" departPos="5.10" departSpeed="27.78" departDelay="0.86" arrival="50.00" arrivalLane="junctionEast_0" arrivalPos="492.80" arrivalSpeed="26.51" duration="49.00" routeLength="989.53" waitingTime="0.00" waitingCount="0" stopTime="0.00" timeLoss="12.28" rerouteNo="0" devices="tripinfo_southEast.0 ssm_southEast.0" vType="carCustom" speedFactor="0.93" vaporized=""/>
    <tripinfo id="southNorth.1" depart="15.00" departLane="southJunction_1" departPos="5.10" departSpeed="26.86" departDelay="0.16" arrival="53.00" arrivalLane="junctionNorth_0" arrivalPos="492.80" arrivalSpeed="27.02" duration="38.00" routeLength="995.01" waitingTime="0.00" waitingCount="0" stopTime="0.00" timeLoss="1.56" rerouteNo="0" devices="tripinfo_southNorth.1 ssm_southNorth.1" vType="carCustom" speedFactor="1.16" vaporized=""/>
    <tripinfo id="westEastBottom0.0" depart="6.00" departLane="westJunction_0" departPos="5.10" departSpeed="27.78" departDelay="0.16" arrival="56.00" arrivalLane="junctionEast_0" arrivalPos="492.80" arrivalSpeed="27.39" duration="50.00" routeLength="994.90" waitingTime="2.00" waitingCount="1" stopTime="0.00" timeLoss="13.31" rerouteNo="0" devices="tripinfo_westEastBottom0.0 ssm_westEastBottom0.0" vType="carCustom" speedFactor="0.93" vaporized=""/>
    <tripinfo id="southEast.1" depart="4.00" departLane="southJunction_0" departPos="5.10" departSpeed="27.70" departDelay="0.91" arrival="61.00" arrivalLane="junctionEast_0" arrivalPos="492.80" arrivalSpeed="27.22" duration="57.00" routeLength="989.53" waitingTime="0.00" waitingCount="0" stopTime="0.00" timeLoss="20.19" rerouteNo="0" devices="tripinfo_southEast.1 ssm_southEast.1" vType="carCustom" speedFactor="0.92" vaporized=""/>
    <tripinfo id="westEastTop.0" depart="14.00" departLane="westJunction_1" departPos="5.10" departSpeed="27.78" departDelay="0.09" arrival="62.00" arrivalLane="junctionEast_1" arrivalPos="492.80" arrivalSpeed="26.82" duration="48.00" routeLength="994.90" waitingTime="4.00" waitingCount="1" stopTime="0.00" timeLoss="11.09" rerouteNo="0" devices="tripinfo_westEastTop.0 ssm_westEastTop.0" vType="carCustom" speedFactor="0.96" vaporized=""/>
    <tripinfo id="southEast.2" depart="8.00" departLane="southJunction_0" departPos="5.10" departSpeed="19.82" departDelay="0.51" arrival="66.00" arrivalLane="junctionEast_0" arrivalPos="492.80" arrivalSpeed="26.53" duration="58.00" routeLength="989.53" waitingTime="0.00" waitingCount="0" stopTime="0.00" timeLoss="21.66" rerouteNo="0" devices="tripinfo_southEast.2 ssm_southEast.2" vType="carCustom" speedFactor="1.07" vaporized=""/>
    <tripinfo id="westEastTop.1" depart="22.00" departLane="westJunction_1" departPos="5.10" departSpeed="27.34" departDelay="0.50" arrival="68.00" arrivalLane="junctionEast_1" arrivalPos="492.80" arrivalSpeed="26.91" duration="46.00" routeLength="994.90" waitingTime="0.00" waitingCount="0" stopTime="0.00" timeLoss="9.80" rerouteNo="0" devices="tripinfo_westEastTop.1 ssm_westEastTop.1" vType="carCustom" speedFactor="0.88" vaporized=""/>
    <tripinfo id="southEast.3" depart="13.00" departLane="southJunction_0" departPos="5.10" departSpeed="17.87" departDelay="0.17" arrival="72.00" arrivalLane="junctionEast_0" arrivalPos="492.80" arrivalSpeed="27.08" duration="59.00" routeLength="989.53" waitingTime="0.00" waitingCount="0" stopTime="0.00" timeLoss="22.16" rerouteNo="0" devices="tripinfo_southEast.3 ssm_southEast.3" vType="carCustom" speedFactor="1.05" vaporized=""/>
    <tripinfo id="westEastTop.2" depart="24.00" departLane="westJunction_1" departPos="5.10" departSpeed="27.49" departDelay="1.56" arrival="74.00" arrivalLane="junctionEast_1" arrivalPos="492.80" arrivalSpeed="27.45" duration="50.00" routeLength="994.90" waitingTime="0.00" waitingCount="0" stopTime="0.00" timeLoss="13.59" rerouteNo="0" devices="tripinfo_westEastTop.2 ssm_westEastTop.2" vType="carCustom" speedFactor="0.96" vaporized=""/>
    <tripinfo id="southEast.4" depart="17.00" departLane="southJunction_0" departPos="5.10" departSpeed="17.53" departDelay="0.72" arrival="78.00" arrivalLane="junctionEast_0" arrivalPos="492.80" arrivalSpeed="26.65" duration="61.00" routeLength="989.53" waitingTime="0.00" waitingCount="0" stopTime="0.00" timeLoss="23.26" rerouteNo="0" devices="tripinfo_southEast.4 ssm_southEast.4" vType="carCustom" speedFactor="1.07" vaporized=""/>
    <tripinfo id="southNorth.2" depart="37.00" departLane="southJunction_1" departPos="5.10" departSpeed="27.78" departDelay="0.20" arrival="79.00" arrivalLane="junctionNorth_0" arrivalPos="492.80" arrivalSpeed="27.12" duration="42.00" routeLength="995.01" waitingTime="0.00" waitingCount="0" stopTime="0.00" timeLoss="5.95" rerouteNo="0" devices="tripinfo_southNorth.2 ssm_southNorth.2" vType="carCustom" speedFactor="0.99" vaporized=""/>
    <tripinfo id="westEastBottom0.1" depart="33.00" departLane="westJunction_0" departPos="5.10" departSpeed="27.78" departDelay="0.60" arrival="80.00" arrivalLane="junctionEast_1" arrivalPos="492.80" arrivalSpeed="27.33" duration="47.00" routeLength="994.90" waitingTime="0.00" waitingCount="0" stopTime="0.00" timeLoss="10.41" rerouteNo="0" devices="tripinfo_westEastBottom0.1 ssm_westEastBottom0.1" vType="carCustom" speedFactor="1.01" vaporized=""/>
    <tripinfo id="westEastBottom0.2" depart="36.00" departLane="westJunction_0" departPos="5.10" departSpeed="27.78" departDelay="0.76" arrival="86.00" arrivalLane="junctionEast_1" arrivalPos="492.80" arrivalSpeed="26.81" duration="50.00" routeLength="994.90" waitingTime="0.00" waitingCount="0" stopTime="0.00" timeLoss="13.64" rerouteNo="0" devices="tripinfo_westEastBottom0.2 ssm_westEastBottom0.2" vType="carCustom" speedFactor="1.18" vaporized=""/>
    <tripinfo id="southEast.5" depart="36.00" departLane="southJunction_0" departPos="5.10" departSpeed="15.15" departDelay="0.41" arrival="88.00" arrivalLane="junctionEast_0" arrivalPos="492.80" arrivalSpeed="26.88" duration="52.00" routeLength="989.53" waitingTime="0.00" waitingCount="0" stopTime="0.00" timeLoss="14.64" rerouteNo="0" devices="tripinfo_southEast.5 ssm_southEast.5" vType="carCustom" speedFactor="0.89" vaporized=""/>
    <tripinfo id="southNorth.3" depart="39.00" departLane="southJunction_1" departPos="5.10" departSpeed="27.16" departDelay="0.78" arrival="92.00" arrivalLane="junctionNorth_0" arrivalPos="492.80" arrivalSpeed="26.54" duration="53.00" routeLength="995.01" waitingTime="0.00" waitingCount="0" stopTime="0.00" timeLoss="16.68" rerouteNo="0" devices="tripinfo_southNorth.3 ssm_southNorth.3" vType="carCustom" speedFactor="0.92" vaporized=""/>
    <tripinfo id="southEast.6" depart="38.00" departLane="southJunction_0" departPos="5.10" departSpeed="18.40" departDelay="0.54" arrival="94.00" arrivalLane="junctionEast_0" arrivalPos="492.80" arrivalSpeed="27.20" duration="56.00" routeLength="989.53" waitingTime="0.00" waitingCount="0" stopTime="0.00" timeLoss="19.39" rerouteNo="0" devices="tripinfo_southEast.6 ssm_southEast.6" vType="carCustom" speedFactor="1.04" vaporized=""/>
    <tripinfo id="westEastTop.3" depart="37.00" departLane="westJunction_1" departPos="5.10" departSpeed="24.97" departDelay="0.35" arrival="98.00" arrivalLane="junctionEast_1" arrivalPos="492.80" arrivalSpeed="27.67" duration="61.00" routeLength="994.90" waitingTime="1.00" waitingCount="1" stopTime="0.00" timeLoss="24.24" rerouteNo="0" devices="tripinfo_westEastTop.3 ssm_westEastTop.3" vType="carCustom" speedFactor="1.03" vaporized=""/>
    <tripinfo id="southEast.7" depart="40.00" departLane="southJunction_0" departPos="5.10" departSpeed="13.66" departDelay="2.12" arrival="101.00" arrivalLane="junctionEast_0" arrivalPos="492.80" arrivalSpeed="27.26" duration="61.00" routeLength="989.53" waitingTime="0.00" waitingCount="0" stopTime="0.00" timeLoss="23.30" rerouteNo="0" devices="tripinfo_southEast.7 ssm_southEast.7" vType="carCustom" speedFactor="1.05" vaporized=""/>
    <tripinfo id="southNorth.4" depart="46.00" departLane="southJunction_1" departPos="5.10" departSpeed="19.76" departDelay="0.49" arrival="103.00" arrivalLane="junctionNorth_0" arrivalPos="492.80" arrivalSpeed="27.33" duration="57.00" routeLength="995.01" waitingTime="2.00" waitingCount="1" stopTime="0.00" timeLoss="20.51" rerouteNo="0" devices="tripinfo_southNorth.4 ssm_southNorth.4" vType="carCustom" speedFactor="1.08" vaporized=""/>
    <tripinfo id="southEast.8" depart="42.00" departLane="southJunction_0" departPos="5.10" departSpeed="10.31" departDelay="1.48" arrival="107.00" arrivalLane="junctionEast_0" arrivalPos="492.80" arrivalSpeed="26.61" duration="65.00" routeLength="989.53" waitingTime="0.00" waitingCount="0" stopTime="0.00" timeLoss="27.64" rerouteNo="0" devices="tripinfo_southEast.8 ssm_southEast.8" vType="carCustom" speedFactor="1.10" vaporized=""/>
    <tripinfo id="westEastBottom0.3" depart="47.00" departLane="westJunction_0" departPos="5.10" departSpeed="27.78" departDelay="0.60" arrival="108.00" arrivalLane="junctionEast_1" arrivalPos="492.80" arrivalSpeed="26.73" duration="61.00" routeLength="994.90" waitingTime="3.00" waitingCount="1" stopTime="0.00" timeLoss="24.81" rerouteNo="0" devices="tripinfo_westEastBottom0.3 ssm_westEastBottom0.3" vType="carCustom" speedFactor="1.01" vaporized=""/>
    <tripinfo id="westEastBottom0.4" depart="52.00" departLane="westJunction_0" departPos="5.10" departSpeed="27.78" departDelay="0.65" arrival="112.00" arrivalLane="junctionEast_0" arrivalPos="492.80" arrivalSpeed="27.20" duration="60.00" routeLength="994.90" waitingTime="5.00" waitingCount="1" stopTime="0.00" timeLoss="23.98" rerouteNo="0" devices="tripinfo_westEastBottom0.4 ssm_westEastBottom0.4" vType="carCustom" speedFactor="1.01" vaporized=""/>
    <tripinfo id="westEastTop.4" depart="48.00" departLane="westJunction_1" departPos="5.10" departSpeed="13.40" departDelay="0.22" arrival="114.00" arrivalLane="junctionEast_1" arrivalPos="492.80" arrivalSpeed="26.52" duration="66.00" routeLength="994.90" waitingTime="0.00" waitingCount="0" stopTime="0.00" timeLoss="29.42" rerouteNo="0" devices="tripinfo_westEastTop.4 ssm_westEastTop.4" vType="carCustom" speedFactor="1.09" vaporized=""/>
    <tripinfo id="southEast.9" depart="45.00" departLane="southJunction_0" departPos="5.10" departSpeed="8.04" departDelay="0.47" arrival="117.00" arrivalLane="junctionEast_0" arrivalPos="492.80" arrivalSpeed="27.65" duration="72.00" routeLength="989.53" waitingTime="0.00" waitingCount="0" stopTime="0.00" timeLoss="35.77" rerouteNo="0" devices="tripinfo_southEast.9 ssm_southEast.9" vType="carCustom" speedFactor="1.00" vaporized=""/>
    <tripinfo id="southNorth.5" depart="63.00" departLane="southJunction_1" departPos="5.10" departSpeed="17.75" departDelay="0.36" arrival="117.00" arrivalLane="junctionNorth_0" arrivalPos="492.80" arrivalSpeed="27.49" duration="54.00" routeLength="995.01" waitingTime="1.00" waitingCount="1" stopTime="0.00" timeLoss="17.97" rerouteNo="0" devices="tripinfo_southNorth.5 ssm_southNorth.5" vType="carCustom" speedFactor="1.03" vaporized=""/>
    <tripinfo id="southEast.12" depart="55.00" departLane="southJunction_0" departPos="5.10" departSpeed="7.75" departDelay="0.04" arrival="120.00" arrivalLane="junctionEast_1" arrivalPos="492.80" arrivalSpeed="27.39" duration="65.00" routeLength="989.53" waitingTime="0.00" waitingCount="0" stopTime="0.00" timeLoss="27.24" rerouteNo="0" devices="tripinfo_southEast.12 ssm_southEast.12" vType="carCustom" speedFactor="1.15" vaporized=""/>
    <tripinfo id="southEast.10" depart="48.00" departLane="southJunction_0" departPos="5.10" departSpeed="7.17" departDelay="0.75" arrival="123.00" arrivalLane="junctionEast_0" arrivalPos="492.80" arrivalSpeed="27.54" duration="75.00" routeLength="989.53" waitingTime="0.00" waitingCount="0" stopTime="0.00" timeLoss="38.40" rerouteNo="0" devices="tripinfo_southEast.10 ssm_southEast.10" vType="carCustom" speedFactor="1.15" vaporized=""/>
    <tripinfo id="westEastBottom0.5" depart="72.00" departLane="westJunction_0" departPos="5.10" departSpeed="15.90" departDelay="0.61" arrival="125.00" arrivalLane="junctionEast_1" arrivalPos="492.80" arrivalSpeed="27.00" duration="53.00" routeLength="994.90" waitingTime="0.00" waitingCount="0" stopTime="0.00" timeLoss="16.80" rerouteNo="0" devices="tripinfo_westEastBottom0.5 ssm_westEastBottom0.5" vType="carCustom" speedFactor="0.95" vaporized=""/>
    <tripinfo id="southNorth.6" depart="75.00" departLane="southJunction_1" departPos="5.10" departSpeed="17.87" departDelay="0.67" arrival="127.00" arrivalLane="junctionNorth_0" arrivalPos="492.80" arrivalSpeed="26.75" duration="52.00" routeLength="995.01" waitingTime="0.00" waitingCount="0" stopTime="0.00" timeLoss="15.67" rerouteNo="0" devices="tripinfo_southNorth.6 ssm_southNorth.6" vType="carCustom" speedFactor="0.90" vaporized=""/>
    <tripinfo id="southEast.11" depart="53.00" departLane="southJunction_0" departPos="5.10" departSpeed="8.15" departDelay="0.28" arrival="129.00" arrivalLane="junctionEast_0" arrivalPos="492.80" arrivalSpeed="26.73" duration="76.00" routeLength="989.53" waitingTime="0.00" waitingCount="0" stopTime="0.00" timeLoss="38.84" rerouteNo="0" devices="tripinfo_southEast.11 ssm_southEast.11" vType="carCustom" speedFactor="1.13" vaporized=""/>
    <tripinfo id="westEastTop.5" depart="74.00" departLane="westJunction_1" departPos="5.10" departSpeed="19.35" departDelay="0.27" arrival="133.00" arrivalLane="junctionEast_1" arrivalPos="492.80" arrivalSpeed="27.64" duration="59.00" routeLength="994.90" waitingTime="2.00" waitingCount="1" stopTime="0.00" timeLoss="22.65" rerouteNo="0" devices="tripinfo_westEastTop.5 ssm_westEastTop.5" vType="carCustom" speedFactor="1.04" vaporized=""/>
    <tripinfo id="southEast.13" depart="62.00" departLane="southJunction_0" departPos="5.10" departSpeed="9.65" departDelay="0.86" arrival="134.00" arrivalLane="junctionEast_0" arrivalPos="492.80" arrivalSpeed="26.82" duration="72.00" routeLength="989.53" waitingTime="0.00" waitingCount="0" stopTime="0.00" timeLoss="35.26" rerouteNo="0" devices="tripinfo_southEast.13 ssm_southEast.13" vType="carCustom" speedFactor="0.95" vaporized=""/>
    <tripinfo id="westEastTop.6" depart="76.00" departLane="westJunction_1" departPos="5.10" departSpeed="14.50" departDelay="1.89" arrival="139.00" arrivalLane="junctionEast_1" arrivalPos="492.80" arrivalSpeed="27.22" duration="63.00" routeLength="994.90" waitingTime="0.00" waitingCount="0" stopTime="0.00" timeLoss="26.38" rerouteNo="0" devices="tripinfo_westEastTop.6 ssm_westEastTop.6" vType="carCustom" speedFactor="1.02" vaporized=""/>
    <tripinfo id="westEastBottom0.6" depart="77.00" departLane="westJunction_0" departPos="5.10" departSpeed="18.10" departDelay="0.25" arrival="139.00" arrivalLane="junctionEast_0" arrivalPos="492.80" arrivalSpeed="26.60" duration="62.00" routeLength="994.90" waitingTime="1.00" waitingCount="1" stopTime="0.00" timeLoss="25.87" rerouteNo="0" devices="tripinfo_westEastBottom0.6 ssm_westEastBottom0.6" vType="carCustom" speedFactor="1.08" vaporized=""/>
    <tripinfo id="southEast.18" depart="86.00" departLane="southJunction_0" departPos="5.10" departSpeed="12.72" departDelay="3.78" arrival="139.00" arrivalLane="junctionEast_0" arrivalPos="492.80" arrivalSpeed="5.05" duration="53.00" routeLength="989.53" waitingTime="4.00" waitingCount="1" stopTime="0.00" timeLoss="34.29" rerouteNo="0" devices="tripinfo_southEast.18 ssm_southEast.18" vType="carCustom" speedFactor="0.93" vaporized="teleport"/>
    <tripinfo id="southEast.14" depart="64.00" departLane="southJunction_0" departPos="5.10" departSpeed="12.71" departDelay="2.41" arrival="144.00" arrivalLane="junctionEast_0" arrivalPos="492.80" arrivalSpeed="27.38" duration="80.00" routeLength="989.53" waitingTime="0.00" waitingCount="0" stopTime="0.00" timeLoss="43.36" rerouteNo="0" devices="tripinfo_southEast.14 ssm_southEast.14" vType="carCustom" speedFactor="0.98" vaporized=""/>
    <tripinfo id="westEastTop.7" depart="78.00" departLane="westJunction_1" departPos="5.10" departSpeed="10.33" departDelay="0.20" arrival="144.00" arrivalLane="junctionEast_1" arrivalPos="492.80" arrivalSpeed="27.14" duration="66.00" routeLength="994.90" waitingTime="0.00" waitingCount="0" stopTime="0.00" timeLoss="29.79" rerouteNo="0" devices="tripinfo_westEastTop.7 ssm_westEastTop.7" vType="carCustom" speedFactor="0.79" vaporized=""/>
    <tripinfo id="southEast.15" depart="74.00" departLane="southJunction_0" departPos="5.10" departSpeed="11.08" departDelay="0.85" arrival="149.00" arrivalLane="junctionEast_0" arrivalPos="492.80" arrivalSpeed="26.64" duration="75.00" routeLength="989.53" waitingTime="0.00" waitingCount="0" stopTime="0.00" timeLoss="37.70" rerouteNo="0" devices="tripinfo_southEast.15 ssm_southEast.15" vType="carCustom" speedFactor="1.00" vaporized=""/>
    <tripinfo id="westEastTop.8" depart="80.00" departLane="westJunction_1" departPos="5.10" departSpeed="7.71" departDelay="1.48" arrival="149.00" arrivalLane="junctionEast_1" arrivalPos="492.80" arrivalSpeed="26.57" duration="69.00" routeLength="994.90" waitingTime="0.00" waitingCount="0" stopTime="0.00" timeLoss="32.98" rerouteNo="0" devices="tripinfo_westEastTop.8 ssm_westEastTop.8" vType="carCustom" speedFactor="1.00" vaporized=""/>
    <tripinfo id="southNorth.7" depart="95.00" departLane="southJunction_1" departPos="5.10" departSpeed="12.74" departDelay="0.88" arrival="152.00" arrivalLane="junctionNorth_0" arrivalPos="492.80" arrivalSpeed="27.34" duration="57.00" routeLength="995.01" waitingTime="7.00" waitingCount="1" stopTime="0.00" timeLoss="20.30" rerouteNo="0" devices="tripinfo_southNorth.7 ssm_southNorth.7" vType="carCustom" speedFactor="0.98" vaporized=""/>
    <tripinfo id="southEast.16" depart="82.00" departLane="southJunction_0" departPos="5.10" departSpeed="15.03" departDelay="0.30" arrival="154.00" arrivalLane="junctionEast_0" arrivalPos="492.80" arrivalSpeed="27.17" duration="72.00" routeLength="989.53" waitingTime="0.00" waitingCount="0" stopTime="0.00" timeLoss="35.11" rerouteNo="0" devices="tripinfo_southEast.16 ssm_southEast.16" vType="carCustom" speedFactor="1.16" vaporized=""/>
    <tripinfo id="southEast.17" depart="84.00" departLane="southJunction_0" departPos="5.10" departSpeed="17.75" departDelay="1.89" arrival="155.00" arrivalLane="junctionEast_1" arrivalPos="492.80" arrivalSpeed="27.03" duration="71.00" routeLength="989.53" waitingTime="0.00" waitingCount="0" stopTime="0.00" timeLoss="33.75" rerouteNo="0" devices="tripinfo_southEast.17 ssm_southEast.17" vType="carCustom" speedFactor="0.91" vaporized=""/>
    <tripinfo id="westEastTop.9" depart="87.00" departLane="westJunction_1" departPos="5.10" departSpeed="9.77" departDelay="0.35" arrival="160.00" arrivalLane="junctionEast_1" arrivalPos="492.80" arrivalSpeed="27.74" duration="73.00" routeLength="994.90" waitingTime="5.00" waitingCount="1" stopTime="0.00" timeLoss="36.49" rerouteNo="0" devices="tripinfo_westEastTop.9 ssm_westEastTop.9" vType="carCustom" speedFactor="1.06" vaporized=""/>
    <tripinfo id="westEastBottom0.7" depart="97.00" departLane="westJunction_0" departPos="5.10" departSpeed="18.79" departDelay="0.44" arrival="160.00" arrivalLane="junctionEast_0" arrivalPos="492.80" arrivalSpeed="27.22" duration="63.00" routeLength="994.90" waitingTime="5.00" waitingCount="1" stopTime="0.00" timeLoss="26.13" rerouteNo="0" devices="tripinfo_westEastBottom0.7 ssm_westEastBottom0.7" vType="carCustom" speedFactor="1.21" vaporized=""/>
    <tripinfo id="westEastTop.10" depart="89.00" departLane="westJunction_1" departPos="5.10" departSpeed="10.77" departDelay="0.82" arrival="165.00" arrivalLane="junctionEast_1" arrivalPos="492.80" arrivalSpeed="27.28" duration="76.00" routeLength="994.90" waitingTime="0.00" waitingCount="0" stopTime="0.00" timeLoss="39.94" rerouteNo="0" devices="tripinfo_westEastTop.10 ssm_westEastTop.10" vType="carCustom" speedFactor="0.95" vaporized=""/>
    <tripinfo id="westEastBottom0.9" depart="105.00" departLane="westJunction_0" departPos="5.10" departSpeed="17.14" departDelay="2.26" arrival="165.00" arrivalLane="junctionEast_0" arrivalPos="492.80" arrivalSpeed="27.68" duration="60.00" routeLength="994.90" waitingTime="0.00" waitingCount="0" stopTime="0.00" timeLoss="23.48" rerouteNo="0" devices="tripinfo_westEastBottom0.9 ssm_westEastBottom0.9" vType="carCustom" speedFactor="1.01" vaporized=""/>
    <tripinfo id="westEastBottom0.11" depart="132.00" departLane="westJunction_0" departPos="5.10" departSpeed="15.09" departDelay="0.73" arrival="165.00" arrivalLane="junctionEast_0" arrivalPos="492.80" arrivalSpeed="6.03" duration="33.00" routeLength="994.90" waitingTime="0.00" waitingCount="0" stopTime="0.00" timeLoss="14.80" rerouteNo="0" devices="tripinfo_westEastBottom0.11 ssm_westEastBottom0.11" vType="carCustom" speedFactor="0.98" vaporized="teleport"/>
    <tripinfo id="southNorth.8" depart="105.00" departLane="southJunction_1" departPos="5.10" departSpeed="26.60" departDelay="0.72" arrival="168.00" arrivalLane="junctionNorth_0" arrivalPos="492.80" arrivalSpeed="27.22" duration="63.00" routeLength="995.01" waitingTime="10.00" waitingCount="1" stopTime="0.00" timeLoss="26.95" rerouteNo="0" devices="tripinfo_southNorth.8 ssm_southNorth.8" vType="carCustom" speedFactor="0.96" vaporized=""/>
    <tripinfo id="southEast.19" depart="88.00" departLane="southJunction_0" departPos="5.10" departSpeed="8.70" departDelay="5.36" arrival="170.00" arrivalLane="junctionEast_0" arrivalPos="492.80" arrivalSpeed="26.79" duration="82.00" routeLength="989.53" waitingTime="0.00" waitingCount="0" stopTime="0.00" timeLoss="44.33" rerouteNo="0" devices="tripinfo_southEast.19 ssm_southEast.19" vType="carCustom" speedFactor="1.02" vaporized=""/>
    <tripinfo id="westEastTop.11" depart="98.00" departLane="westJunction_1" departPos="5.10" departSpeed="10.70" departDelay="0.40" arrival="170.00" arrivalLane="junctionEast_1" arrivalPos="492.80" arrivalSpeed="27.40" duration="72.00" routeLength="994.90" waitingTime="0.00" waitingCount="0" stopTime="0.00" timeLoss="35.91" rerouteNo="0" devices="tripinfo_westEastTop.11 ssm_westEastTop.11" vType="carCustom" speedFactor="1.12" vaporized=""/>
    <tripinfo id="southEast.20" depart="94.00" departLane="southJunction_0" departPos="5.10" departSpeed="9.07" departDelay="0.86" arrival="175.00" arrivalLane="junctionEast_0" arrivalPos="492.80" arrivalSpeed="27.03" duration="81.00" routeLength="989.53" waitingTime="0.00" waitingCount="0" stopTime="0.00" timeLoss="43.34" rerouteNo="0" devices="tripinfo_southEast.20 ssm_southEast.20" vType="carCustom" speedFactor="1.02" vaporized=""/>
    <tripinfo id="westEastBottom0.8" depart="103.00" departLane="westJunction_0" departPos="5.10" departSpeed="16.14" departDelay="0.61" arrival="176.00" arrivalLane="junctionEast_1" arrivalPos="492.80" arrivalSpeed="27.38" duration="73.00" routeLength="994.90" waitingTime="2.00" waitingCount="1" stopTime="0.00" timeLoss="36.49" rerouteNo="0" devices="tripinfo_westEastBottom0.8 ssm_westEastBottom0.8" vType="carCustom" speedFactor="0.76" vaporized=""/>
    <tripinfo id="westEastBottom0.10" depart="107.00" departLane="westJunction_0" departPos="5.10" departSpeed="16.14" departDelay="2.43" arrival="180.00" arrivalLane="junctionEast_0" arrivalPos="492.80" arrivalSpeed="27.74" duration="73.00" routeLength="994.90" waitingTime="2.00" waitingCount="1" stopTime="0.00" timeLoss="36.55" rerouteNo="0" devices="tripinfo_westEastBottom0.10 ssm_westEastBottom0.10" vType="carCustom" speedFactor="1.21" vaporized=""/>
    <tripinfo id="westEastTop.12" depart="103.00" departLane="westJunction_1" departPos="5.10" departSpeed="13.26" departDelay="0.56" arrival="181.00" arrivalLane="junctionEast_1" arrivalPos="492.80" arrivalSpeed="26.55" duration="78.00" routeLength="994.90" waitingTime="0.00" waitingCount="0" stopTime="0.00" timeLoss="41.83" rerouteNo="0" devices="tripinfo_westEastTop.12 ssm_westEastTop.12" vType="carCustom" speedFactor="1.16" vaporized=""/>
    <tripinfo id="southNorth.9" depart="111.00" departLane="southJunction_1" departPos="5.10" departSpeed="27.23" departDelay="0.27" arrival="183.00" arrivalLane="junctionNorth_0" arrivalPos="492.80" arrivalSpeed="27.11" duration="72.00" routeLength="995.01" waitingTime="10.00" waitingCount="1" stopTime="0.00" timeLoss="35.64" rerouteNo="0" devices="tripinfo_southNorth.9 ssm_southNorth.9" vType="carCustom" speedFactor="1.01" vaporized=""/>
    <tripinfo id="southEast.21" depart="116.00" departLane="southJunction_0" departPos="5.10" departSpeed="11.90" departDelay="0.13" arrival="185.00" arrivalLane="junctionEast_0" arrivalPos="492.80" arrivalSpeed="27.76" duration="69.00" routeLength="989.53" waitingTime="3.00" waitingCount="1" stopTime="0.00" timeLoss="32.13" rerouteNo="0" devices="tripinfo_southEast.21 ssm_southEast.21" vType="carCustom" speedFactor="1.13" vaporized=""/>
    <tripinfo id="westEastTop.13" depart="105.00" departLane="westJunction_1" departPos="5.10" departSpeed="13.13" departDelay="1.49" arrival="186.00" arrivalLane="junctionEast_1" arrivalPos="492.80" arrivalSpeed="27.42" duration="81.00" routeLength="994.90" waitingTime="0.00" waitingCount="0" stopTime="0.00" timeLoss="44.88" rerouteNo="0" devices="tripinfo_westEastTop.13 ssm_westEastTop.13" vType="carCustom" speedFactor="1.07" vaporized=""/>
    <tripinfo id="southNorth.10" depart="117.00" departLane="southJunction_1" departPos="5.10" departSpeed="23.36" departDelay="0.30" arrival="189.00" arrivalLane="junctionNorth_0" arrivalPos="492.80" arrivalSpeed="26.50" duration="72.00" routeLength="995.01" waitingTime="7.00" waitingCount="1" stopTime="0.00" timeLoss="35.28" rerouteNo="0" devices="tripinfo_southNorth.10 ssm_southNorth.10" vType="carCustom" speedFactor="0.87" vaporized=""/>
    <tripinfo id="southEast.22" depart="123.00" departLane="southJunction_0" departPos="5.10" departSpeed="21.50" departDelay="0.37" arrival="190.00" arrivalLane="junctionEast_0" arrivalPos="492.80" arrivalSpeed="27.69" duration="67.00" routeLength="989.53" waitingTime="0.00" waitingCount="0" stopTime="0.00" timeLoss="29.17" rerouteNo="0" devices="tripinfo_southEast.22 ssm_southEast.22" vType="carCustom" speedFactor="0.99" vaporized=""/>
    <tripinfo id="westEastTop.14" depart="115.00" departLane="westJunction_1" departPos="5.10" departSpeed="8.08" departDelay="0.81" arrival="191.00" arrivalLane="junctionEast_1" arrivalPos="492.80" arrivalSpeed="26.81" duration="76.00" routeLength="994.90" waitingTime="1.00" waitingCount="1" stopTime="0.00" timeLoss="40.13" rerouteNo="0" devices="tripinfo_westEastTop.14 ssm_westEastTop.14" vType="carCustom" speedFactor="1.01" vaporized=""/>
    <tripinfo id="southEast.23" depart="125.00" departLane="southJunction_0" departPos="5.10" departSpeed="21.37" departDelay="0.67" arrival="195.00" arrivalLane="junctionEast_0" arrivalPos="492.80" arrivalSpeed="27.57" duration="70.00" routeLength="989.53" waitingTime="0.00" waitingCount="0" stopTime="0.00" timeLoss="32.63" rerouteNo="0" devices="tripinfo_southEast.23 ssm_southEast.23" vType="carCustom" speedFactor="0.93" vaporized=""/>
    <tripinfo id="southNorth.11" depart="132.00" departLane="southJunction_1" departPos="5.10" departSpeed="17.25" departDelay="0.98" arrival="195.00" arrivalLane="junctionNorth_0" arrivalPos="492.80" arrivalSpeed="26.79" duration="63.00" routeLength="995.01" waitingTime="2.00" waitingCount="1" stopTime="0.00" timeLoss="26.36" rerouteNo="0" devices="tripinfo_southNorth.11 ssm_southNorth.11" vType="carCustom" speedFactor="1.24" vaporized=""/>