<?xml version="1.0" encoding="UTF-8"?>

<!-- generated on 2025-04-29 05:04:22 by Eclipse SUMO sumo Version 1.20.0
<configuration xmlns:xsi="http://www.w3.org/2001/XMLSchema-instance" xsi:noNamespaceSchemaLocation="http://sumo.dlr.de/xsd/sumoConfiguration.xsd">

    <input>
        <net-file value="nets/2lane_unprotected_right/2lane_unprotected_right.net.xml"/>
        <route-files value="nets/2lane_unprotected_right/2lane_unprotected_right.rou.xml"/>
    </input>

    <output>
        <tripinfo-output value="traces/transs50f0.5_s50_f1_random/0044_tripinfo.xml"/>
        <collision-output value="traces/transs50f0.5_s50_f1_random/0044_collisions.xml"/>
        <statistic-output value="traces/transs50f0.5_s50_f1_random/0044_statistics.xml"/>
    </output>

    <processing>
        <collision.action value="teleport"/>
        <collision.check-junctions value="true"/>
        <time-to-teleport value="-1"/>
        <waiting-time-memory value="1000"/>
        <max-depart-delay value="-1"/>
        <default.speeddev value="0.1"/>
    </processing>

    <report>
        <no-warnings value="true"/>
    </report>

    <ssm_device>
        <device.ssm.probability value="1.0"/>
        <device.ssm.measures value="BR"/>
        <device.ssm.file value="/Users/finn/Code/CausalKnowledgeTransfer-4-SafeRL/traces/transs50f0.5_s50_f1_random/0044_ssm.xml"/>
    </ssm_device>

    <traci_server>
        <remote-port value="62947"/>
    </traci_server>

    <random_number>
        <random value="true"/>
    </random_number>

</configuration>
-->

<tripinfos xmlns:xsi="http://www.w3.org/2001/XMLSchema-instance" xsi:noNamespaceSchemaLocation="http://sumo.dlr.de/xsd/tripinfo_file.xsd">
    <tripinfo id="southEast.0" depart="1.00" departLane="southJunction_0" departPos="5.10" departSpeed="8.33" departDelay="0.98" arrival="131.00" arrivalLane="junctionEast_0" arrivalPos="492.80" arrivalSpeed="8.15" duration="130.00" routeLength="989.53" waitingTime="0.00" waitingCount="0" stopTime="0.00" timeLoss="10.15" rerouteNo="0" devices="tripinfo_southEast.0 ssm_southEast.0" vType="carCustom" speedFactor="1.07" vaporized=""/>
    <tripinfo id="southEast.1" depart="6.00" departLane="southJunction_0" departPos="5.10" departSpeed="8.06" departDelay="0.64" arrival="137.00" arrivalLane="junctionEast_0" arrivalPos="492.80" arrivalSpeed="8.08" duration="131.00" routeLength="989.53" waitingTime="0.00" waitingCount="0" stopTime="0.00" timeLoss="11.18" rerouteNo="0" devices="tripinfo_southEast.1 ssm_southEast.1" vType="carCustom" speedFactor="0.96" vaporized=""/>
    <tripinfo id="westEastTop.0" depart="1.00" departLane="westJunction_1" departPos="5.10" departSpeed="8.33" departDelay="0.66" arrival="138.00" arrivalLane="junctionEast_1" arrivalPos="492.80" arrivalSpeed="7.16" duration="137.00" routeLength="994.90" waitingTime="3.00" waitingCount="1" stopTime="0.00" timeLoss="16.93" rerouteNo="0" devices="tripinfo_westEastTop.0 ssm_westEastTop.0" vType="carCustom" speedFactor="0.86" vaporized=""/>
    <tripinfo id="westEastBottom0.0" depart="8.00" departLane="westJunction_0" departPos="5.10" departSpeed="8.33" departDelay="0.41" arrival="142.00" arrivalLane="junctionEast_0" arrivalPos="492.80" arrivalSpeed="7.53" duration="134.00" routeLength="994.90" waitingTime="0.00" waitingCount="0" stopTime="0.00" timeLoss="13.74" rerouteNo="0" devices="tripinfo_westEastBottom0.0 ssm_westEastBottom0.0" vType="carCustom" speedFactor="1.00" vaporized=""/>
    <tripinfo id="westEastTop.1" depart="4.00" departLane="westJunction_1" departPos="5.10" departSpeed="7.12" departDelay="3.61" arrival="143.00" arrivalLane="junctionEast_1" arrivalPos="492.80" arrivalSpeed="8.20" duration="139.00" routeLength="994.90" waitingTime="0.00" waitingCount="0" stopTime="0.00" timeLoss="18.62" rerouteNo="0" devices="tripinfo_westEastTop.1 ssm_westEastTop.1" vType="carCustom" speedFactor="0.97" vaporized=""/>
    <tripinfo id="southNorth.0" depart="5.00" departLane="southJunction_1" departPos="5.10" departSpeed="8.33" departDelay="0.07" arrival="143.00" arrivalLane="junctionNorth_0" arrivalPos="492.80" arrivalSpeed="8.27" duration="138.00" routeLength="995.01" waitingTime="3.00" waitingCount="1" stopTime="0.00" timeLoss="18.39" rerouteNo="0" devices="tripinfo_southNorth.0 ssm_southNorth.0" vType="carCustom" speedFactor="0.99" vaporized=""/>
    <tripinfo id="westEastTop.2" depart="7.00" departLane="westJunction_1" departPos="5.10" departSpeed="6.52" departDelay="4.43" arrival="147.00" arrivalLane="junctionEast_1" arrivalPos="492.80" arrivalSpeed="7.59" duration="140.00" routeLength="994.90" waitingTime="1.00" waitingCount="1" stopTime="0.00" timeLoss="20.45" rerouteNo="0" devices="tripinfo_westEastTop.2 ssm_westEastTop.2" vType="carCustom" speedFactor="1.02" vaporized=""/>
    <tripinfo id="westEastBottom0.1" depart="11.00" departLane="westJunction_0" departPos="5.10" departSpeed="7.12" departDelay="2.66" arrival="147.00" arrivalLane="junctionEast_0" arrivalPos="492.80" arrivalSpeed="8.19" duration="136.00" routeLength="994.90" waitingTime="1.00" waitingCount="1" stopTime="0.00" timeLoss="15.79" rerouteNo="0" devices="tripinfo_westEastBottom0.1 ssm_westEastBottom0.1" vType="carCustom" speedFactor="1.05" vaporized=""/>
    <tripinfo id="southNorth.1" depart="8.00" departLane="southJunction_1" departPos="5.10" departSpeed="7.12" departDelay="2.37" arrival="152.00" arrivalLane="junctionNorth_0" arrivalPos="492.80" arrivalSpeed="8.22" duration="144.00" routeLength="995.01" waitingTime="5.00" waitingCount="1" stopTime="0.00" timeLoss="23.88" rerouteNo="0" devices="tripinfo_southNorth.1 ssm_southNorth.1" vType="carCustom" speedFactor="0.87" vaporized=""/>
    <tripinfo id="southEast.2" depart="16.00" departLane="southJunction_0" departPos="5.10" departSpeed="8.30" departDelay="0.96" arrival="152.00" arrivalLane="junctionEast_0" arrivalPos="492.80" arrivalSpeed="7.65" duration="136.00" routeLength="989.53" waitingTime="3.00" waitingCount="1" stopTime="0.00" timeLoss="16.40" rerouteNo="0" devices="tripinfo_southEast.2 ssm_southEast.2" vType="carCustom" speedFactor="0.90" vaporized=""/>
    <tripinfo id="westEastBottom0.6" depart="88.00" departLane="westJunction_0" departPos="5.10" departSpeed="7.42" departDelay="0.85" arrival="154.00" arrivalLane="junctionEast_0" arrivalPos="492.80" arrivalSpeed="6.31" duration="66.00" routeLength="994.90" waitingTime="0.00" waitingCount="0" stopTime="0.00" timeLoss="5.62" rerouteNo="0" devices="tripinfo_westEastBottom0.6 ssm_westEastBottom0.6" vType="carCustom" speedFactor="1.02" vaporized="teleport"/>
    <tripinfo id="westEastTop.3" depart="12.00" departLane="westJunction_1" departPos="5.10" departSpeed="5.20" departDelay="0.17" arrival="157.00" arrivalLane="junctionEast_0" arrivalPos="492.80" arrivalSpeed="7.57" duration="145.00" routeLength="994.90" waitingTime="4.00" waitingCount="1" stopTime="0.00" timeLoss="24.86" rerouteNo="0" devices="tripinfo_westEastTop.3 ssm_westEastTop.3" vType="carCustom" speedFactor="0.97" vaporized=""/>
    <tripinfo id="westEastTop.4" depart="15.00" departLane="westJunction_1" departPos="5.10" departSpeed="5.33" departDelay="2.84" arrival="162.00" arrivalLane="junctionEast_0" arrivalPos="492.80" arrivalSpeed="8.05" duration="147.00" routeLength="994.90" waitingTime="0.00" waitingCount="0" stopTime="0.00" timeLoss="26.72" rerouteNo="0" devices="tripinfo_westEastTop.4 ssm_westEastTop.4" vType="carCustom" speedFactor="0.99" vaporized=""/>
    <tripinfo id="southNorth.2" depart="28.00" departLane="southJunction_1" departPos="5.10" departSpeed="6.97" departDelay="0.73" arrival="162.00" arrivalLane="junctionNorth_0" arrivalPos="492.80" arrivalSpeed="8.18" duration="134.00" routeLength="995.01" waitingTime="1.00" waitingCount="1" stopTime="0.00" timeLoss="14.19" rerouteNo="0" devices="tripinfo_southNorth.2 ssm_southNorth.2" vType="carCustom" speedFactor="1.07" vaporized=""/>
    <tripinfo id="southEast.3" depart="33.00" departLane="southJunction_0" departPos="5.10" departSpeed="7.47" departDelay="0.79" arrival="166.00" arrivalLane="junctionEast_0" arrivalPos="492.80" arrivalSpeed="7.93" duration="133.00" routeLength="989.53" waitingTime="0.00" waitingCount="0" stopTime="0.00" timeLoss="13.87" rerouteNo="0" devices="tripinfo_southEast.3 ssm_southEast.3" vType="carCustom" speedFactor="0.94" vaporized=""/>
    <tripinfo id="westEastTop.5" depart="19.00" departLane="westJunction_1" departPos="5.10" departSpeed="4.57" departDelay="0.30" arrival="167.00" arrivalLane="junctionEast_1" arrivalPos="492.80" arrivalSpeed="7.14" duration="148.00" routeLength="994.90" waitingTime="2.00" waitingCount="1" stopTime="0.00" timeLoss="28.17" rerouteNo="0" devices="tripinfo_westEastTop.5 ssm_westEastTop.5" vType="carCustom" speedFactor="1.00" vaporized=""/>
    <tripinfo id="southEast.11" depart="99.00" departLane="southJunction_0" departPos="5.10" departSpeed="7.26" departDelay="0.20" arrival="167.00" arrivalLane="junctionEast_0" arrivalPos="492.80" arrivalSpeed="2.86" duration="68.00" routeLength="989.53" waitingTime="0.00" waitingCount="0" stopTime="0.00" timeLoss="8.08" rerouteNo="0" devices="tripinfo_southEast.11 ssm_southEast.11" vType="carCustom" speedFactor="1.15" vaporized="teleport"/>
    <tripinfo id="southEast.4" depart="40.00" departLane="southJunction_0" departPos="5.10" departSpeed="7.59" departDelay="0.48" arrival="171.00" arrivalLane="junctionEast_0" arrivalPos="492.80" arrivalSpeed="8.33" duration="131.00" routeLength="989.53" waitingTime="0.00" waitingCount="0" stopTime="0.00" timeLoss="11.81" rerouteNo="0" devices="tripinfo_southEast.4 ssm_southEast.4" vType="carCustom" speedFactor="1.05" vaporized=""/>
    <tripinfo id="southNorth.3" depart="38.00" departLane="southJunction_1" departPos="5.10" departSpeed="7.46" departDelay="0.86" arrival="172.00" arrivalLane="junctionNorth_0" arrivalPos="492.80" arrivalSpeed="7.68" duration="134.00" routeLength="995.01" waitingTime="2.00" waitingCount="1" stopTime="0.00" timeLoss="14.02" rerouteNo="0" devices="tripinfo_southNorth.3 ssm_southNorth.3" vType="carCustom" speedFactor="1.07" vaporized=""/>
    <tripinfo id="southEast.5" depart="45.00" departLane="southJunction_0" departPos="5.10" departSpeed="7.21" departDelay="0.65" arrival="176.00" arrivalLane="junctionEast_0" arrivalPos="492.80" arrivalSpeed="7.89" duration="131.00" routeLength="989.53" waitingTime="0.00" waitingCount="0" stopTime="0.00" timeLoss="11.63" rerouteNo="0" devices="tripinfo_southEast.5 ssm_southEast.5" vType="carCustom" speedFactor="1.14" vaporized=""/>
    <tripinfo id="westEastTop.6" depart="22.00" departLane="westJunction_1" departPos="5.10" departSpeed="4.65" departDelay="2.64" arrival="177.00" arrivalLane="junctionEast_1" arrivalPos="492.80" arrivalSpeed="8.14" duration="155.00" routeLength="994.90" waitingTime="5.00" waitingCount="1" stopTime="0.00" timeLoss="34.97" rerouteNo="0" devices="tripinfo_westEastTop.6 ssm_westEastTop.6" vType="carCustom" speedFactor="1.10" vaporized=""/>
    <tripinfo id="westEastBottom0.2" depart="43.00" departLane="westJunction_0" departPos="5.10" departSpeed="7.01" departDelay="0.61" arrival="181.00" arrivalLane="junctionEast_0" arrivalPos="492.80" arrivalSpeed="8.13" duration="138.00" routeLength="994.90" waitingTime="1.00" waitingCount="1" stopTime="0.00" timeLoss="17.88" rerouteNo="0" devices="tripinfo_westEastBottom0.2 ssm_westEastBottom0.2" vType="carCustom" speedFactor="1.00" vaporized=""/>
    <tripinfo id="westEastTop.7" depart="26.00" departLane="westJunction_1" departPos="5.10" departSpeed="4.77" departDelay="2.12" arrival="182.00" arrivalLane="junctionEast_1" arrivalPos="492.80" arrivalSpeed="7.18" duration="156.00" routeLength="994.90" waitingTime="3.00" waitingCount="1" stopTime="0.00" timeLoss="36.15" rerouteNo="0" devices="tripinfo_westEastTop.7 ssm_westEastTop.7" vType="carCustom" speedFactor="1.06" vaporized=""/>
    <tripinfo id="southNorth.4" depart="41.00" departLane="southJunction_1" departPos="5.10" departSpeed="8.27" departDelay="0.99" arrival="182.00" arrivalLane="junctionNorth_0" arrivalPos="492.80" arrivalSpeed="7.19" duration="141.00" routeLength="995.01" waitingTime="4.00" waitingCount="1" stopTime="0.00" timeLoss="21.13" rerouteNo="0" devices="tripinfo_southNorth.4 ssm_southNorth.4" vType="carCustom" speedFactor="1.11" vaporized=""/>
    <tripinfo id="westEastTop.8" depart="32.00" departLane="westJunction_1" departPos="5.10" departSpeed="4.94" departDelay="0.24" arrival="187.00" arrivalLane="junctionEast_0" arrivalPos="492.80" arrivalSpeed="7.08" duration="155.00" routeLength="994.90" waitingTime="2.00" waitingCount="2" stopTime="0.00" timeLoss="35.42" rerouteNo="0" devices="tripinfo_westEastTop.8 ssm_westEastTop.8" vType="carCustom" speedFactor="0.98" vaporized=""/>
    <tripinfo id="southNorth.5" depart="44.00" departLane="southJunction_1" departPos="5.10" departSpeed="6.48" departDelay="3.95" arrival="187.00" arrivalLane="junctionNorth_0" arrivalPos="492.80" arrivalSpeed="7.34" duration="143.00" routeLength="995.01" waitingTime="0.00" waitingCount="0" stopTime="0.00" timeLoss="23.19" rerouteNo="0" devices="tripinfo_southNorth.5 ssm_southNorth.5" vType="carCustom" speedFactor="1.20" vaporized=""/>
    <tripinfo id="southNorth.6" depart="47.00" departLane="southJunction_1" departPos="5.10" departSpeed="5.90" departDelay="5.07" arrival="192.00" arrivalLane="junctionNorth_0" arrivalPos="492.80" arrivalSpeed="8.21" duration="145.00" routeLength="995.01" waitingTime="2.00" waitingCount="1" stopTime="0.00" timeLoss="25.39" rerouteNo="0" devices="tripinfo_southNorth.6 ssm_southNorth.6" vType="carCustom" speedFactor="1.11" vaporized=""/>
    <tripinfo id="southEast.6" depart="61.00" departLane="southJunction_0" departPos="5.10" departSpeed="7.51" departDelay="0.09" arrival="192.00" arrivalLane="junctionEast_0" arrivalPos="492.80" arrivalSpeed="7.41" duration="131.00" routeLength="989.53" waitingTime="0.00" waitingCount="0" stopTime="0.00" timeLoss="11.72" rerouteNo="0" devices="tripinfo_southEast.6 ssm_southEast.6" vType="carCustom" speedFactor="0.93" vaporized=""/>
    <tripinfo id="westEastTop.9" depart="35.00" departLane="westJunction_1" departPos="5.10" departSpeed="5.21" departDelay="1.04" arrival="197.00" arrivalLane="junctionEast_1" arrivalPos="492.80" arrivalSpeed="7.41" duration="162.00" routeLength="994.90" waitingTime="5.00" waitingCount="1" stopTime="0.00" timeLoss="42.15" rerouteNo="0" devices="tripinfo_westEastTop.9 ssm_westEastTop.9" vType="carCustom" speedFactor="0.88" vaporized=""/>
    <tripinfo id="southNorth.7" depart="50.00" departLane="southJunction_1" departPos="5.10" departSpeed="4.54" departDelay="5.72" arrival="197.00" arrivalLane="junctionNorth_0" arrivalPos="492.80" arrivalSpeed="7.40" duration="147.00" routeLength="995.01" waitingTime="0.00" waitingCount="0" stopTime="0.00" timeLoss="27.29" rerouteNo="0" devices="tripinfo_southNorth.7 ssm_southNorth.7" vType="carCustom" speedFactor="0.74" vaporized=""/>
    <tripinfo id="westEastBottom0.3" depart="64.00" departLane="westJunction_0" departPos="5.10" departSpeed="7.25" departDelay="0.76" arrival="198.00" arrivalLane="junctionEast_0" arrivalPos="492.80" arrivalSpeed="7.75" duration="134.00" routeLength="994.90" waitingTime="1.00" waitingCount="1" stopTime="0.00" timeLoss="14.16" rerouteNo="0" devices="tripinfo_westEastBottom0.3 ssm_westEastBottom0.3" vType="carCustom" speedFactor="0.90" vaporized=""/>
    <tripinfo id="southNorth.8" depart="64.00" departLane="southJunction_1" departPos="5.10" departSpeed="6.42" departDelay="0.11" arrival="202.00" arrivalLane="junctionNorth_0" arrivalPos="492.80" arrivalSpeed="7.77" duration="138.00" routeLength="995.01" waitingTime="1.00" waitingCount="1" stopTime="0.00" timeLoss="18.15" rerouteNo="0" devices="tripinfo_southNorth.8 ssm_southNorth.8" vType="carCustom" speedFactor="1.05" vaporized=""/>
    <tripinfo id="southEast.7" depart="71.00" departLane="southJunction_0" departPos="5.10" departSpeed="7.10" departDelay="0.13" arrival="203.00" arrivalLane="junctionEast_0" arrivalPos="492.80" arrivalSpeed="7.66" duration="132.00" routeLength="989.53" waitingTime="0.00" waitingCount="0" stopTime="0.00" timeLoss="12.11" rerouteNo="0" devices="tripinfo_southEast.7 ssm_southEast.7" vType="carCustom" speedFactor="0.96" vaporized=""/>
    <tripinfo id="westEastBottom0.4" depart="74.00" departLane="westJunction_0" departPos="5.10" departSpeed="7.56" departDelay="0.33" arrival="207.00" arrivalLane="junctionEast_0" arrivalPos="492.80" arrivalSpeed="8.01" duration="133.00" routeLength="994.90" waitingTime="0.00" waitingCount="0" stopTime="0.00" timeLoss="13.44" rerouteNo="0" devices="tripinfo_westEastBottom0.4 ssm_westEastBottom0.4" vType="carCustom" speedFactor="0.85" vaporized=""/>
    <tripinfo id="westEastTop.10" depart="39.00" departLane="westJunction_1" departPos="5.10" departSpeed="4.65" departDelay="5.04" arrival="208.00" arrivalLane="junctionEast_0" arrivalPos="492.80" arrivalSpeed="7.48" duration="169.00" routeLength="994.90" waitingTime="8.00" waitingCount="2" stopTime="0.00" timeLoss="48.94" rerouteNo="0" devices="tripinfo_westEastTop.10 ssm_westEastTop.10" vType="carCustom" speedFactor="1.00" vaporized=""/>
    <tripinfo id="southNorth.9" depart="66.00" departLane="southJunction_1" departPos="5.10" departSpeed="7.16" departDelay="1.64" arrival="212.00" arrivalLane="junctionNorth_0" arrivalPos="492.80" arrivalSpeed="7.83" duration="146.00" routeLength="995.01" waitingTime="5.00" waitingCount="1" stopTime="0.00" timeLoss="25.95" rerouteNo="0" devices="tripinfo_southNorth.9 ssm_southNorth.9" vType="carCustom" speedFactor="0.92" vaporized=""/>
    <tripinfo id="southEast.8" depart="78.00" departLane="southJunction_0" departPos="5.10" departSpeed="7.75" departDelay="0.17" arrival="212.00" arrivalLane="junctionEast_0" arrivalPos="492.80" arrivalSpeed="7.19" duration="134.00" routeLength="989.53" waitingTime="0.00" waitingCount="0" stopTime="0.00" timeLoss="14.53" rerouteNo="0" devices="tripinfo_southEast.8 ssm_southEast.8" vType="carCustom" speedFactor="1.02" vaporized=""/>
    <tripinfo id="westEastBottom0.5" depart="76.00" departLane="westJunction_0" departPos="5.10" departSpeed="8.21" departDelay="0.20" arrival="213.00" arrivalLane="junctionEast_1" arrivalPos="492.80" arrivalSpeed="7.43" duration="137.00" routeLength="994.90" waitingTime="0.00" waitingCount="0" stopTime="0.00" timeLoss="16.98" rerouteNo="0" devices="tripinfo_westEastBottom0.5 ssm_westEastBottom0.5" vType="carCustom" speedFactor="0.99" vaporized=""/>
    <tripinfo id="westEastTop.11" depart="54.00" departLane="westJunction_1" departPos="5.10" departSpeed="5.86" departDelay="0.88" arrival="217.00" arrivalLane="junctionEast_1" arrivalPos="492.80" arrivalSpeed="7.98" duration="163.00" routeLength="994.90" waitingTime="8.00" waitingCount="3" stopTime="0.00" timeLoss="43.43" rerouteNo="0" devices="tripinfo_westEastTop.11 ssm_westEastTop.11" vType="carCustom" speedFactor="0.84" vaporized=""/>
    <tripinfo id="southEast.9" depart="81.00" departLane="southJunction_0" departPos="5.10" departSpeed="8.24" departDelay="0.42" arrival="217.00" arrivalLane="junctionEast_0" arrivalPos="492.80" arrivalSpeed="8.33" duration="136.00" routeLength="989.53" waitingTime="0.00" waitingCount="0" stopTime="0.00" timeLoss="16.35" rerouteNo="0" devices="tripinfo_southEast.9 ssm_southEast.9" vType="carCustom" speedFactor="0.84" vaporized=""/>
    <tripinfo id="westEastTop.12" depart="73.00" departLane="westJunction_1" departPos="5.10" departSpeed="7.21" departDelay="0.92" arrival="222.00" arrivalLane="junctionEast_1" arrivalPos="492.80" arrivalSpeed="7.73" duration="149.00" routeLength="994.90" waitingTime="4.00" waitingCount="2" stopTime="0.00" timeLoss="28.96" rerouteNo="0" devices="tripinfo_westEastTop.12 ssm_westEastTop.12" vType="carCustom" speedFactor="1.11" vaporized=""/>
    <tripinfo id="southNorth.10" depart="77.00" departLane="southJunction_1" departPos="5.10" departSpeed="7.14" departDelay="0.71" arrival="222.00" arrivalLane="junctionNorth_0" arrivalPos="492.80" arrivalSpeed="7.55" duration="145.00" routeLength="995.01" waitingTime="6.00" waitingCount="2" stopTime="0.00" timeLoss="25.21" rerouteNo="0" devices="tripinfo_southNorth.10 ssm_southNorth.10" vType="carCustom" speedFactor="1.06" vaporized=""/>
    <tripinfo id="southEast.10" depart="84.00" departLane="southJunction_0" departPos="5.10" departSpeed="5.87" departDelay="0.61" arrival="222.00" arrivalLane="junctionEast_0" arrivalPos="492.80" arrivalSpeed="7.82" duration="138.00" routeLength="989.53" waitingTime="0.00" waitingCount="0" stopTime="0.00" timeLoss="18.54" rerouteNo="0" devices="tripinfo_southEast.10 ssm_southEast.10" vType="carCustom" speedFactor="1.15" vaporized=""/>
    <tripinfo id="westEastTop.13" depart="78.00" departLane="westJunction_1" departPos="5.10" departSpeed="7.22" departDelay="0.05" arrival="227.00" arrivalLane="junctionEast_0" arrivalPos="492.80" arrivalSpeed="8.31" duration="149.00" routeLength="994.90" waitingTime="3.00" waitingCount="2" stopTime="0.00" timeLoss="28.93" rerouteNo="0" devices="tripinfo_westEastTop.13 ssm_westEastTop.13" vType="carCustom" speedFactor="0.88" vaporized=""/>
    <tripinfo id="southEast.16" depart="160.00" departLane="southJunction_0" departPos="5.10" departSpeed="7.75" departDelay="0.02" arrival="227.00" arrivalLane="junctionEast_0" arrivalPos="492.80" arrivalSpeed="5.63" duration="67.00" routeLength="989.53" waitingTime="0.00" waitingCount="0" stopTime="0.00" timeLoss="6.47" rerouteNo="0" devices="tripinfo_southEast.16 ssm_southEast.16" vType="carCustom" speedFactor="1.05" vaporized="teleport"/>
    <tripinfo id="southNorth.11" depart="79.00" departLane="southJunction_1" departPos="5.10" departSpeed="7.85" departDelay="2.30" arrival="228.00" arrivalLane="junctionNorth_0" arrivalPos="492.80" arrivalSpeed="7.97" duration="149.00" routeLength="995.01" waitingTime="3.00" waitingCount="1" stopTime="0.00" timeLoss="28.69" rerouteNo="0" devices="tripinfo_southNorth.11 ssm_southNorth.11" vType="carCustom" speedFactor="1.13" vaporized=""/>
    <tripinfo id="westEastTop.14" depart="87.00" departLane="westJunction_1" departPos="5.10" departSpeed="7.06" departDelay="0.99" arrival="231.00" arrivalLane="junctionEast_0" arrivalPos="492.80" arrivalSpeed="8.28" duration="144.00" routeLength="994.90" waitingTime="0.00" waitingCount="0" stopTime="0.00" timeLoss="24.45" rerouteNo="0" devices="tripinfo_westEastTop.14 ssm_westEastTop.14" vType="carCustom" speedFactor="0.93" vaporized=""/>
    <tripinfo id="southNorth.12" depart="95.00" departLane="southJunction_1" departPos="5.10" departSpeed="7.87" departDelay="0.57" arrival="232.00" arrivalLane="junctionNorth_0" arrivalPos="492.80" arrivalSpeed="8.09" duration="137.00" routeLength="995.01" waitingTime="1.00" waitingCount="1" stopTime="0.00" timeLoss="17.54" rerouteNo="0" devices="tripinfo_southNorth.12 ssm_southNorth.12" vType="carCustom" speedFactor="1.09" vaporized=""/>
    <tripinfo id="westEastBottom0.7" depart="100.00" departLane="westJunction_0" departPos="5.10" departSpeed="7.10" departDelay="0.58" arrival="232.00" arrivalLane="junctionEast_1" arrivalPos="492.80" arrivalSpeed="7.14" duration="132.00" routeLength="994.90" waitingTime="0.00" waitingCount="0" stopTime="0.00" timeLoss="12.27" rerouteNo="0" devices="tripinfo_westEastBottom0.7 ssm_westEastBottom0.7" vType="carCustom" speedFactor="0.98" vaporized=""/>
    <tripinfo id="southEast.12" depart="102.00" departLane="southJunction_0" departPos="5.10" departSpeed="7.05" departDelay="2.32" arrival="237.00" arrivalLane="junctionEast_0" arrivalPos="492.80" arrivalSpeed="7.99" duration="135.00" routeLength="989.53" waitingTime="0.00" waitingCount="0" stopTime="0.00" timeLoss="14.89" rerouteNo="0" devices="tripinfo_southEast.12 ssm_southEast.12" vType="carCustom" speedFactor="1.02" vaporized=""/>
    <tripinfo id="westEastTop.15" depart="103.00" departLane="westJunction_1" departPos="5.10" departSpeed="7.37" departDelay="0.36" arrival="237.00" arrivalLane="junctionEast_1" arrivalPos="492.80" arrivalSpeed="7.69" duration="134.00" routeLength="994.90" waitingTime="1.00" waitingCount="1" stopTime="0.00" timeLoss="14.36" rerouteNo="0" devices="tripinfo_westEastTop.15 ssm_westEastTop.15" vType="carCustom" speedFactor="0.95" vaporized=""/>
    <tripinfo id="westEastBottom0.8" depart="102.00" departLane="westJunction_0" departPos="5.10" departSpeed="8.20" departDelay="2.20" arrival="241.00" arrivalLane="junctionEast_0" arrivalPos="492.80" arrivalSpeed="7.16" duration="139.00" routeLength="994.90" waitingTime="0.00" waitingCount="0" stopTime="0.00" timeLoss="19.34" rerouteNo="0" devices="tripinfo_westEastBottom0.8 ssm_westEastBottom0.8" vType="carCustom" speedFactor="0.99" vaporized=""/>
    <tripinfo id="southNorth.13" depart="106.00" departLane="southJunction_1" departPos="5.10" departSpeed="7.14" departDelay="0.43" arrival="242.00" arrivalLane="junctionNorth_0" arrivalPos="492.80" arrivalSpeed="7.20" duration="136.00" routeLength="995.01" waitingTime="3.00" waitingCount="1" stopTime="0.00" timeLoss="16.15" rerouteNo="0" devices="tripinfo_southNorth.13 ssm_southNorth.13" vType="carCustom" speedFactor="0.94" vaporized=""/>
    <tripinfo id="westEastTop.16" depart="106.00" departLane="westJunction_1" departPos="5.10" departSpeed="7.21" departDelay="2.76" arrival="246.00" arrivalLane="junctionEast_0" arrivalPos="492.80" arrivalSpeed="7.59" duration="140.00" routeLength="994.90" waitingTime="4.00" waitingCount="1" stopTime="0.00" timeLoss="20.39" rerouteNo="0" devices="tripinfo_westEastTop.16 ssm_westEastTop.16" vType="carCustom" speedFactor="1.01" vaporized=""/>
    <tripinfo id="westEastBottom0.9" depart="118.00" departLane="westJunction_0" departPos="5.10" departSpeed="7.63" departDelay="0.29" arrival="251.00" arrivalLane="junctionEast_0" arrivalPos="492.80" arrivalSpeed="8.14" duration="133.00" routeLength="994.90" waitingTime="0.00" waitingCount="0" stopTime="0.00" timeLoss="12.94" rerouteNo="0" devices="tripinfo_westEastBottom0.9 ssm_westEastBottom0.9" vType="carCustom" speedFactor="0.89" vaporized=""/>
    <tripinfo id="southNorth.14" depart="112.00" departLane="southJunction_1" departPos="5.10" departSpeed="7.86" departDelay="0.44" arrival="253.00" arrivalLane="junctionNorth_0" arrivalPos="492.80" arrivalSpeed="7.09" duration="141.00" routeLength="995.01" waitingTime="5.00" waitingCount="1" stopTime="0.00" timeLoss="20.81" rerouteNo="0" devices="tripinfo_southNorth.14 ssm_southNorth.14" vType="carCustom" speedFactor="0.99" vaporized=""/>
    <tripinfo id="southEast.13" depart="118.00" departLane="southJunction_0" departPos="5.10" departSpeed="7.99" departDelay="0.10" arrival="253.00" arrivalLane="junctionEast_1" arrivalPos="492.80" arrivalSpeed="7.48" duration="135.00" routeLength="989.53" waitingTime="0.00" waitingCount="0" stopTime="0.00" timeLoss="14.97" rerouteNo="0" devices="tripinfo_southEast.13 ssm_southEast.13" vType="carCustom" speedFactor="0.81" vaporized=""/>
    <tripinfo id="westEastBottom0.10" depart="125.00" departLane="westJunction_0" departPos="5.10" departSpeed="8.25" departDelay="0.45" arrival="257.00" arrivalLane="junctionEast_0" arrivalPos="492.80" arrivalSpeed="7.19" duration="132.00" routeLength="994.90" waitingTime="0.00" waitingCount="0" stopTime="0.00" timeLoss="11.98" rerouteNo="0" devices="tripinfo_westEastBottom0.10 ssm_westEastBottom0.10" vType="carCustom" speedFactor="0.95" vaporized=""/>
    <tripinfo id="westEastTop.17" depart="119.00" departLane="westJunction_1" departPos="5.10" departSpeed="7.65" departDelay="0.88" arrival="258.00" arrivalLane="junctionEast_1" arrivalPos="492.80" arrivalSpeed="8.05" duration="139.00" routeLength="994.90" waitingTime="4.00" waitingCount="1" stopTime="0.00" timeLoss="18.97" rerouteNo="0" devices="tripinfo_westEastTop.17 ssm_westEastTop.17" vType="carCustom" speedFactor="1.06" vaporized=""/>
    <tripinfo id="southNorth.15" depart="127.00" departLane="southJunction_1" departPos="5.10" departSpeed="7.45" departDelay="0.54" arrival="262.00" arrivalLane="junctionNorth_0" arrivalPos="492.80" arrivalSpeed="8.07" duration="135.00" routeLength="995.01" waitingTime="2.00" waitingCount="1" stopTime="0.00" timeLoss="14.66" rerouteNo="0" devices="tripinfo_southNorth.15 ssm_southNorth.15" vType="carCustom" speedFactor="1.04" vaporized=""/>
    <tripinfo id="southEast.14" depart="129.00" departLane="southJunction_0" departPos="5.10" departSpeed="7.23" departDelay="0.74" arrival="262.00" arrivalLane="junctionEast_0" arrivalPos="492.80" arrivalSpeed="7.10" duration="133.00" routeLength="989.53" waitingTime="0.00" waitingCount="0" stopTime="0.00" timeLoss="13.67" rerouteNo="0" devices="tripinfo_southEast.14 ssm_southEast.14" vType="carCustom" speedFactor="1.11" vaporized=""/>
    <tripinfo id="southEast.15" depart="131.00" departLane="southJunction_0" departPos="5.10" departSpeed="7.64" departDelay="0.85" arrival="266.00" arrivalLane="junctionEast_0" arrivalPos="492.80" arrivalSpeed="8.15" duration="135.00" routeLength="989.53" waitingTime="0.00" waitingCount="0" stopTime="0.00" timeLoss="15.99" rerouteNo="0" devices="tripinfo_southEast.15 ssm_southEast.15" vType="carCustom" speedFactor="1.04" vaporized=""/>
    <tripinfo id="westEastTop.18" depart="127.00" departLane="westJunction_1" departPos="5.10" departSpeed="8.24" departDelay="0.90" arrival="267.00" arrivalLane="junctionEast_0" arrivalPos="492.80" arrivalSpeed="7.52" duration="140.00" routeLength="994.90" waitingTime="5.00" waitingCount="1" stopTime="0.00" timeLoss="19.71" rerouteNo="0" devices="tripinfo_westEastTop.18 ssm_westEastTop.18" vType="carCustom" speedFactor="1.26" vaporized=""/>