<?xml version="1.0" encoding="UTF-8"?>

<!-- generated on 2025-04-29 05:08:07 by Eclipse SUMO sumo Version 1.20.0
<configuration xmlns:xsi="http://www.w3.org/2001/XMLSchema-instance" xsi:noNamespaceSchemaLocation="http://sumo.dlr.de/xsd/sumoConfiguration.xsd">

    <input>
        <net-file value="nets/2lane_unprotected_right/2lane_unprotected_right.net.xml"/>
        <route-files value="nets/2lane_unprotected_right/2lane_unprotected_right.rou.xml"/>
    </input>

    <output>
        <tripinfo-output value="traces/transs50f0.5_s50_f1_random/0046_tripinfo.xml"/>
        <collision-output value="traces/transs50f0.5_s50_f1_random/0046_collisions.xml"/>
        <statistic-output value="traces/transs50f0.5_s50_f1_random/0046_statistics.xml"/>
    </output>

    <processing>
        <collision.action value="teleport"/>
        <collision.check-junctions value="true"/>
        <time-to-teleport value="-1"/>
        <waiting-time-memory value="1000"/>
        <max-depart-delay value="-1"/>
        <default.speeddev value="0.1"/>
    </processing>

    <report>
        <no-warnings value="true"/>
    </report>

    <ssm_device>
        <device.ssm.probability value="1.0"/>
        <device.ssm.measures value="BR"/>
        <device.ssm.file value="/Users/finn/Code/CausalKnowledgeTransfer-4-SafeRL/traces/transs50f0.5_s50_f1_random/0046_ssm.xml"/>
    </ssm_device>

    <traci_server>
        <remote-port value="62976"/>
    </traci_server>

    <random_number>
        <random value="true"/>
    </random_number>

</configuration>
-->

<tripinfos xmlns:xsi="http://www.w3.org/2001/XMLSchema-instance" xsi:noNamespaceSchemaLocation="http://sumo.dlr.de/xsd/tripinfo_file.xsd">
    <tripinfo id="westEastTop.0" depart="5.00" departLane="westJunction_1" departPos="5.10" departSpeed="22.22" departDelay="0.45" arrival="51.00" arrivalLane="junctionEast_1" arrivalPos="492.80" arrivalSpeed="22.03" duration="46.00" routeLength="994.90" waitingTime="0.00" waitingCount="0" stopTime="0.00" timeLoss="0.95" rerouteNo="0" devices="tripinfo_westEastTop.0 ssm_westEastTop.0" vType="carCustom" speedFactor="0.75" vaporized=""/>
    <tripinfo id="westEastBottom0.0" depart="7.00" departLane="westJunction_0" departPos="5.10" departSpeed="22.22" departDelay="0.33" arrival="53.00" arrivalLane="junctionEast_0" arrivalPos="492.80" arrivalSpeed="21.32" duration="46.00" routeLength="994.90" waitingTime="0.00" waitingCount="0" stopTime="0.00" timeLoss="1.08" rerouteNo="0" devices="tripinfo_westEastBottom0.0 ssm_westEastBottom0.0" vType="carCustom" speedFactor="1.01" vaporized=""/>
    <tripinfo id="westEastTop.1" depart="13.00" departLane="westJunction_1" departPos="5.10" departSpeed="21.09" departDelay="0.58" arrival="64.00" arrivalLane="junctionEast_1" arrivalPos="492.80" arrivalSpeed="21.94" duration="51.00" routeLength="994.90" waitingTime="0.00" waitingCount="0" stopTime="0.00" timeLoss="5.78" rerouteNo="0" devices="tripinfo_westEastTop.1 ssm_westEastTop.1" vType="carCustom" speedFactor="0.99" vaporized=""/>
    <tripinfo id="westEastBottom0.1" depart="19.00" departLane="westJunction_0" departPos="5.10" departSpeed="22.17" departDelay="0.35" arrival="75.00" arrivalLane="junctionEast_1" arrivalPos="492.80" arrivalSpeed="21.44" duration="56.00" routeLength="994.90" waitingTime="0.00" waitingCount="0" stopTime="0.00" timeLoss="10.66" rerouteNo="0" devices="tripinfo_westEastBottom0.1 ssm_westEastBottom0.1" vType="carCustom" speedFactor="0.91" vaporized=""/>
    <tripinfo id="southEast.0" depart="21.00" departLane="southJunction_0" departPos="5.10" departSpeed="22.22" departDelay="0.19" arrival="76.00" arrivalLane="junctionEast_0" arrivalPos="492.80" arrivalSpeed="21.31" duration="55.00" routeLength="989.53" waitingTime="0.00" waitingCount="0" stopTime="0.00" timeLoss="9.27" rerouteNo="0" devices="tripinfo_southEast.0 ssm_southEast.0" vType="carCustom" speedFactor="1.16" vaporized=""/>
    <tripinfo id="westEastBottom0.2" depart="26.00" departLane="westJunction_0" departPos="5.10" departSpeed="16.80" departDelay="0.90" arrival="85.00" arrivalLane="junctionEast_1" arrivalPos="492.80" arrivalSpeed="21.91" duration="59.00" routeLength="994.90" waitingTime="0.00" waitingCount="0" stopTime="0.00" timeLoss="13.46" rerouteNo="0" devices="tripinfo_westEastBottom0.2 ssm_westEastBottom0.2" vType="carCustom" speedFactor="1.06" vaporized=""/>
    <tripinfo id="southNorth.0" depart="32.00" departLane="southJunction_1" departPos="5.10" departSpeed="22.22" departDelay="0.70" arrival="88.00" arrivalLane="junctionNorth_0" arrivalPos="492.80" arrivalSpeed="22.12" duration="56.00" routeLength="995.01" waitingTime="0.00" waitingCount="0" stopTime="0.00" timeLoss="11.18" rerouteNo="0" devices="tripinfo_southNorth.0 ssm_southNorth.0" vType="carCustom" speedFactor="0.95" vaporized=""/>
    <tripinfo id="westEastTop.2" depart="15.00" departLane="westJunction_1" departPos="5.10" departSpeed="18.79" departDelay="2.36" arrival="94.00" arrivalLane="junctionEast_0" arrivalPos="492.80" arrivalSpeed="22.17" duration="79.00" routeLength="994.90" waitingTime="0.00" waitingCount="0" stopTime="0.00" timeLoss="33.47" rerouteNo="0" devices="tripinfo_westEastTop.2 ssm_westEastTop.2" vType="carCustom" speedFactor="0.86" vaporized=""/>
    <tripinfo id="westEastBottom0.3" depart="29.00" departLane="westJunction_0" departPos="5.10" departSpeed="14.03" departDelay="0.81" arrival="100.00" arrivalLane="junctionEast_1" arrivalPos="492.80" arrivalSpeed="21.02" duration="71.00" routeLength="994.90" waitingTime="3.00" waitingCount="1" stopTime="0.00" timeLoss="25.31" rerouteNo="0" devices="tripinfo_westEastBottom0.3 ssm_westEastBottom0.3" vType="carCustom" speedFactor="0.67" vaporized=""/>
    <tripinfo id="westEastBottom0.4" depart="33.00" departLane="westJunction_0" departPos="5.10" departSpeed="10.33" departDelay="0.46" arrival="105.00" arrivalLane="junctionEast_0" arrivalPos="492.80" arrivalSpeed="21.57" duration="72.00" routeLength="994.90" waitingTime="0.00" waitingCount="0" stopTime="0.00" timeLoss="26.43" rerouteNo="0" devices="tripinfo_westEastBottom0.4 ssm_westEastBottom0.4" vType="carCustom" speedFactor="0.79" vaporized=""/>
    <tripinfo id="southNorth.1" depart="41.00" departLane="southJunction_1" departPos="5.10" departSpeed="21.81" departDelay="0.14" arrival="106.00" arrivalLane="junctionNorth_0" arrivalPos="492.80" arrivalSpeed="22.03" duration="65.00" routeLength="995.01" waitingTime="1.00" waitingCount="1" stopTime="0.00" timeLoss="19.75" rerouteNo="0" devices="tripinfo_southNorth.1 ssm_southNorth.1" vType="carCustom" speedFactor="1.03" vaporized=""/>
    <tripinfo id="westEastTop.3" depart="19.00" departLane="westJunction_1" departPos="5.10" departSpeed="12.91" departDelay="0.54" arrival="111.00" arrivalLane="junctionEast_0" arrivalPos="492.80" arrivalSpeed="21.34" duration="92.00" routeLength="994.90" waitingTime="0.00" waitingCount="0" stopTime="0.00" timeLoss="46.65" rerouteNo="0" devices="tripinfo_westEastTop.3 ssm_westEastTop.3" vType="carCustom" speedFactor="1.00" vaporized=""/>
    <tripinfo id="westEastTop.4" depart="24.00" departLane="westJunction_1" departPos="5.10" departSpeed="9.10" departDelay="0.48" arrival="111.00" arrivalLane="junctionEast_1" arrivalPos="492.80" arrivalSpeed="21.33" duration="87.00" routeLength="994.90" waitingTime="0.00" waitingCount="0" stopTime="0.00" timeLoss="41.77" rerouteNo="0" devices="tripinfo_westEastTop.4 ssm_westEastTop.4" vType="carCustom" speedFactor="0.84" vaporized=""/>
    <tripinfo id="westEastBottom0.5" depart="39.00" departLane="westJunction_0" departPos="5.10" departSpeed="8.89" departDelay="0.86" arrival="118.00" arrivalLane="junctionEast_0" arrivalPos="492.80" arrivalSpeed="21.34" duration="79.00" routeLength="994.90" waitingTime="0.00" waitingCount="0" stopTime="0.00" timeLoss="34.07" rerouteNo="0" devices="tripinfo_westEastBottom0.5 ssm_westEastBottom0.5" vType="carCustom" speedFactor="1.02" vaporized=""/>
    <tripinfo id="westEastTop.5" depart="32.00" departLane="westJunction_1" departPos="5.10" departSpeed="8.93" departDelay="0.85" arrival="120.00" arrivalLane="junctionEast_1" arrivalPos="492.80" arrivalSpeed="21.32" duration="88.00" routeLength="994.90" waitingTime="0.00" waitingCount="0" stopTime="0.00" timeLoss="42.43" rerouteNo="0" devices="tripinfo_westEastTop.5 ssm_westEastTop.5" vType="carCustom" speedFactor="0.94" vaporized=""/>
    <tripinfo id="southEast.1" depart="54.00" departLane="southJunction_0" departPos="5.10" departSpeed="22.22" departDelay="0.62" arrival="126.00" arrivalLane="junctionEast_0" arrivalPos="492.80" arrivalSpeed="21.22" duration="72.00" routeLength="989.53" waitingTime="4.00" waitingCount="1" stopTime="0.00" timeLoss="26.26" rerouteNo="0" devices="tripinfo_southEast.1 ssm_southEast.1" vType="carCustom" speedFactor="1.09" vaporized=""/>
    <tripinfo id="westEastTop.6" depart="38.00" departLane="westJunction_1" departPos="5.10" departSpeed="8.34" departDelay="0.18" arrival="128.00" arrivalLane="junctionEast_1" arrivalPos="492.80" arrivalSpeed="22.04" duration="90.00" routeLength="994.90" waitingTime="0.00" waitingCount="0" stopTime="0.00" timeLoss="44.81" rerouteNo="0" devices="tripinfo_westEastTop.6 ssm_westEastTop.6" vType="carCustom" speedFactor="0.98" vaporized=""/>
    <tripinfo id="southNorth.2" depart="49.00" departLane="southJunction_1" departPos="5.10" departSpeed="18.34" departDelay="0.61" arrival="129.00" arrivalLane="junctionNorth_0" arrivalPos="492.80" arrivalSpeed="21.23" duration="80.00" routeLength="995.01" waitingTime="11.00" waitingCount="1" stopTime="0.00" timeLoss="34.33" rerouteNo="0" devices="tripinfo_southNorth.2 ssm_southNorth.2" vType="carCustom" speedFactor="0.94" vaporized=""/>
    <tripinfo id="westEastBottom0.6" depart="45.00" departLane="westJunction_0" departPos="5.10" departSpeed="8.05" departDelay="0.80" arrival="134.00" arrivalLane="junctionEast_0" arrivalPos="492.80" arrivalSpeed="21.53" duration="89.00" routeLength="994.90" waitingTime="0.00" waitingCount="0" stopTime="0.00" timeLoss="43.56" rerouteNo="0" devices="tripinfo_westEastBottom0.6 ssm_westEastBottom0.6" vType="carCustom" speedFactor="1.02" vaporized=""/>
    <tripinfo id="southEast.2" depart="64.00" departLane="southJunction_0" departPos="5.10" departSpeed="17.78" departDelay="0.80" arrival="137.00" arrivalLane="junctionEast_1" arrivalPos="492.80" arrivalSpeed="21.23" duration="73.00" routeLength="989.53" waitingTime="0.00" waitingCount="0" stopTime="0.00" timeLoss="25.99" rerouteNo="0" devices="tripinfo_southEast.2 ssm_southEast.2" vType="carCustom" speedFactor="0.67" vaporized=""/>
    <tripinfo id="southNorth.3" depart="66.00" departLane="southJunction_1" departPos="5.10" departSpeed="14.06" departDelay="0.68" arrival="140.00" arrivalLane="junctionNorth_0" arrivalPos="492.80" arrivalSpeed="22.07" duration="74.00" routeLength="995.01" waitingTime="3.00" waitingCount="1" stopTime="0.00" timeLoss="28.69" rerouteNo="0" devices="tripinfo_southNorth.3 ssm_southNorth.3" vType="carCustom" speedFactor="0.95" vaporized=""/>
    <tripinfo id="westEastBottom0.7" depart="48.00" departLane="westJunction_0" departPos="5.10" departSpeed="6.92" departDelay="0.15" arrival="142.00" arrivalLane="junctionEast_0" arrivalPos="492.80" arrivalSpeed="22.06" duration="94.00" routeLength="994.90" waitingTime="0.00" waitingCount="0" stopTime="0.00" timeLoss="48.79" rerouteNo="0" devices="tripinfo_westEastBottom0.7 ssm_westEastBottom0.7" vType="carCustom" speedFactor="0.97" vaporized=""/>
    <tripinfo id="westEastTop.7" depart="42.00" departLane="westJunction_1" departPos="5.10" departSpeed="7.89" departDelay="0.81" arrival="145.00" arrivalLane="junctionEast_1" arrivalPos="492.80" arrivalSpeed="21.31" duration="103.00" routeLength="994.90" waitingTime="5.00" waitingCount="1" stopTime="0.00" timeLoss="57.57" rerouteNo="0" devices="tripinfo_westEastTop.7 ssm_westEastTop.7" vType="carCustom" speedFactor="1.12" vaporized=""/>
    <tripinfo id="southEast.3" depart="70.00" departLane="southJunction_0" departPos="5.10" departSpeed="16.95" departDelay="0.89" arrival="150.00" arrivalLane="junctionEast_0" arrivalPos="492.80" arrivalSpeed="21.76" duration="80.00" routeLength="989.53" waitingTime="0.00" waitingCount="0" stopTime="0.00" timeLoss="34.54" rerouteNo="0" devices="tripinfo_southEast.3 ssm_southEast.3" vType="carCustom" speedFactor="1.11" vaporized=""/>
    <tripinfo id="southNorth.4" depart="85.00" departLane="southJunction_1" departPos="5.10" departSpeed="14.40" departDelay="0.44" arrival="150.00" arrivalLane="junctionNorth_0" arrivalPos="492.80" arrivalSpeed="22.02" duration="65.00" routeLength="995.01" waitingTime="0.00" waitingCount="0" stopTime="0.00" timeLoss="19.96" rerouteNo="0" devices="tripinfo_southNorth.4 ssm_southNorth.4" vType="carCustom" speedFactor="0.86" vaporized=""/>
    <tripinfo id="westEastTop.8" depart="45.00" departLane="westJunction_1" departPos="5.10" departSpeed="5.16" departDelay="0.39" arrival="153.00" arrivalLane="junctionEast_1" arrivalPos="492.80" arrivalSpeed="21.35" duration="108.00" routeLength="994.90" waitingTime="2.00" waitingCount="1" stopTime="0.00" timeLoss="63.03" rerouteNo="0" devices="tripinfo_westEastTop.8 ssm_westEastTop.8" vType="carCustom" speedFactor="0.98" vaporized=""/>
    <tripinfo id="westEastBottom0.8" depart="63.00" departLane="westJunction_0" departPos="5.10" departSpeed="7.62" departDelay="0.81" arrival="158.00" arrivalLane="junctionEast_0" arrivalPos="492.80" arrivalSpeed="22.12" duration="95.00" routeLength="994.90" waitingTime="0.00" waitingCount="0" stopTime="0.00" timeLoss="49.74" rerouteNo="0" devices="tripinfo_westEastBottom0.8 ssm_westEastBottom0.8" vType="carCustom" speedFactor="0.89" vaporized=""/>
    <tripinfo id="southEast.4" depart="72.00" departLane="southJunction_0" departPos="5.10" departSpeed="14.41" departDelay="1.21" arrival="161.00" arrivalLane="junctionEast_1" arrivalPos="492.80" arrivalSpeed="21.47" duration="89.00" routeLength="989.53" waitingTime="0.00" waitingCount="0" stopTime="0.00" timeLoss="42.97" rerouteNo="0" devices="tripinfo_southEast.4 ssm_southEast.4" vType="carCustom" speedFactor="0.77" vaporized=""/>
    <tripinfo id="westEastBottom0.9" depart="88.00" departLane="westJunction_0" departPos="5.10" departSpeed="10.69" departDelay="0.58" arrival="166.00" arrivalLane="junctionEast_0" arrivalPos="492.80" arrivalSpeed="20.95" duration="78.00" routeLength="994.90" waitingTime="0.00" waitingCount="0" stopTime="0.00" timeLoss="32.50" rerouteNo="0" devices="tripinfo_westEastBottom0.9 ssm_westEastBottom0.9" vType="carCustom" speedFactor="1.08" vaporized=""/>
    <tripinfo id="westEastTop.9" depart="58.00" departLane="westJunction_1" departPos="5.10" departSpeed="5.79" departDelay="0.68" arrival="169.00" arrivalLane="junctionEast_1" arrivalPos="492.80" arrivalSpeed="21.50" duration="111.00" routeLength="994.90" waitingTime="2.00" waitingCount="1" stopTime="0.00" timeLoss="65.76" rerouteNo="0" devices="tripinfo_westEastTop.9 ssm_westEastTop.9" vType="carCustom" speedFactor="0.98" vaporized=""/>
    <tripinfo id="southEast.5" depart="78.00" departLane="southJunction_0" departPos="5.10" departSpeed="7.82" departDelay="0.68" arrival="173.00" arrivalLane="junctionEast_0" arrivalPos="492.80" arrivalSpeed="21.22" duration="95.00" routeLength="989.53" waitingTime="0.00" waitingCount="0" stopTime="0.00" timeLoss="49.16" rerouteNo="0" devices="tripinfo_southEast.5 ssm_southEast.5" vType="carCustom" speedFactor="0.95" vaporized=""/>
    <tripinfo id="westEastTop.10" depart="61.00" departLane="westJunction_1" departPos="5.10" departSpeed="7.92" departDelay="0.68" arrival="176.00" arrivalLane="junctionEast_1" arrivalPos="492.80" arrivalSpeed="21.98" duration="115.00" routeLength="994.90" waitingTime="0.00" waitingCount="0" stopTime="0.00" timeLoss="70.21" rerouteNo="0" devices="tripinfo_westEastTop.10 ssm_westEastTop.10" vType="carCustom" speedFactor="1.19" vaporized=""/>
    <tripinfo id="southNorth.5" depart="87.00" departLane="southJunction_1" departPos="5.10" departSpeed="18.35" departDelay="1.41" arrival="178.00" arrivalLane="junctionNorth_0" arrivalPos="492.80" arrivalSpeed="21.47" duration="91.00" routeLength="995.01" waitingTime="17.00" waitingCount="1" stopTime="0.00" timeLoss="45.70" rerouteNo="0" devices="tripinfo_southNorth.5 ssm_southNorth.5" vType="carCustom" speedFactor="1.05" vaporized=""/>
    <tripinfo id="southEast.6" depart="85.00" departLane="southJunction_0" departPos="5.10" departSpeed="8.54" departDelay="0.56" arrival="181.00" arrivalLane="junctionEast_0" arrivalPos="492.80" arrivalSpeed="21.26" duration="96.00" routeLength="989.53" waitingTime="0.00" waitingCount="0" stopTime="0.00" timeLoss="50.51" rerouteNo="0" devices="tripinfo_southEast.6 ssm_southEast.6" vType="carCustom" speedFactor="1.06" vaporized=""/>
    <tripinfo id="westEastTop.11" depart="67.00" departLane="westJunction_1" departPos="5.10" departSpeed="5.44" departDelay="0.47" arrival="184.00" arrivalLane="junctionEast_1" arrivalPos="492.80" arrivalSpeed="21.87" duration="117.00" routeLength="994.90" waitingTime="0.00" waitingCount="0" stopTime="0.00" timeLoss="71.64" rerouteNo="0" devices="tripinfo_westEastTop.11 ssm_westEastTop.11" vType="carCustom" speedFactor="1.01" vaporized=""/>
    <tripinfo id="southEast.7" depart="98.00" departLane="southJunction_0" departPos="5.10" departSpeed="9.57" departDelay="0.39" arrival="189.00" arrivalLane="junctionEast_0" arrivalPos="492.80" arrivalSpeed="21.51" duration="91.00" routeLength="989.53" waitingTime="0.00" waitingCount="0" stopTime="0.00" timeLoss="44.30" rerouteNo="0" devices="tripinfo_southEast.7 ssm_southEast.7" vType="carCustom" speedFactor="0.95" vaporized=""/>
    <tripinfo id="southNorth.6" depart="120.00" departLane="southJunction_1" departPos="5.10" departSpeed="10.41" departDelay="0.11" arrival="189.00" arrivalLane="junctionNorth_0" arrivalPos="492.80" arrivalSpeed="21.44" duration="69.00" routeLength="995.01" waitingTime="1.00" waitingCount="1" stopTime="0.00" timeLoss="23.97" rerouteNo="0" devices="tripinfo_southNorth.6 ssm_southNorth.6" vType="carCustom" speedFactor="1.16" vaporized=""/>
    <tripinfo id="westEastTop.12" depart="70.00" departLane="westJunction_1" departPos="5.10" departSpeed="5.53" departDelay="1.73" arrival="191.00" arrivalLane="junctionEast_1" arrivalPos="492.80" arrivalSpeed="21.83" duration="121.00" routeLength="994.90" waitingTime="0.00" waitingCount="0" stopTime="0.00" timeLoss="75.87" rerouteNo="0" devices="tripinfo_westEastTop.12 ssm_westEastTop.12" vType="carCustom" speedFactor="1.15" vaporized=""/>
    <tripinfo id="westEastBottom0.10" depart="118.00" departLane="westJunction_0" departPos="5.10" departSpeed="10.18" departDelay="0.38" arrival="196.00" arrivalLane="junctionEast_0" arrivalPos="492.80" arrivalSpeed="21.87" duration="78.00" routeLength="994.90" waitingTime="5.00" waitingCount="1" stopTime="0.00" timeLoss="33.03" rerouteNo="0" devices="tripinfo_westEastBottom0.10 ssm_westEastBottom0.10" vType="carCustom" speedFactor="0.97" vaporized=""/>
    <tripinfo id="westEastTop.13" depart="81.00" departLane="westJunction_1" departPos="5.10" departSpeed="4.96" departDelay="0.61" arrival="199.00" arrivalLane="junctionEast_1" arrivalPos="492.80" arrivalSpeed="22.10" duration="118.00" routeLength="994.90" waitingTime="1.00" waitingCount="1" stopTime="0.00" timeLoss="72.29" rerouteNo="0" devices="tripinfo_westEastTop.13 ssm_westEastTop.13" vType="carCustom" speedFactor="0.86" vaporized=""/>
    <tripinfo id="southNorth.7" depart="127.00" departLane="southJunction_1" departPos="5.10" departSpeed="22.12" departDelay="0.35" arrival="203.00" arrivalLane="junctionNorth_0" arrivalPos="492.80" arrivalSpeed="21.70" duration="76.00" routeLength="995.01" waitingTime="5.00" waitingCount="1" stopTime="0.00" timeLoss="30.92" rerouteNo="0" devices="tripinfo_southNorth.7 ssm_southNorth.7" vType="carCustom" speedFactor="1.02" vaporized=""/>
    <tripinfo id="southEast.8" depart="123.00" departLane="southJunction_0" departPos="5.10" departSpeed="10.14" departDelay="0.84" arrival="204.00" arrivalLane="junctionEast_0" arrivalPos="492.80" arrivalSpeed="21.72" duration="81.00" routeLength="989.53" waitingTime="0.00" waitingCount="0" stopTime="0.00" timeLoss="35.05" rerouteNo="0" devices="tripinfo_southEast.8 ssm_southEast.8" vType="carCustom" speedFactor="1.01" vaporized=""/>
    <tripinfo id="westEastTop.14" depart="84.00" departLane="westJunction_1" departPos="5.10" departSpeed="6.57" departDelay="1.11" arrival="206.00" arrivalLane="junctionEast_1" arrivalPos="492.80" arrivalSpeed="21.30" duration="122.00" routeLength="994.90" waitingTime="2.00" waitingCount="1" stopTime="0.00" timeLoss="76.98" rerouteNo="0" devices="tripinfo_westEastTop.14 ssm_westEastTop.14" vType="carCustom" speedFactor="0.91" vaporized=""/>
    <tripinfo id="westEastBottom0.11" depart="122.00" departLane="westJunction_0" departPos="5.10" departSpeed="17.73" departDelay="0.80" arrival="211.00" arrivalLane="junctionEast_0" arrivalPos="492.80" arrivalSpeed="21.36" duration="89.00" routeLength="994.90" waitingTime="0.00" waitingCount="0" stopTime="0.00" timeLoss="43.96" rerouteNo="0" devices="tripinfo_westEastBottom0.11 ssm_westEastBottom0.11" vType="carCustom" speedFactor="1.05" vaporized=""/>
    <tripinfo id="westEastTop.15" depart="87.00" departLane="westJunction_1" departPos="5.10" departSpeed="4.05" departDelay="3.74" arrival="214.00" arrivalLane="junctionEast_1" arrivalPos="492.80" arrivalSpeed="21.74" duration="127.00" routeLength="994.90" waitingTime="0.00" waitingCount="0" stopTime="0.00" timeLoss="81.39" rerouteNo="0" devices="tripinfo_westEastTop.15 ssm_westEastTop.15" vType="carCustom" speedFactor="0.98" vaporized=""/>
    <tripinfo id="southNorth.8" depart="130.00" departLane="southJunction_1" departPos="5.10" departSpeed="17.88" departDelay="0.97" arrival="215.00" arrivalLane="junctionNorth_0" arrivalPos="492.80" arrivalSpeed="21.37" duration="85.00" routeLength="995.01" waitingTime="3.00" waitingCount="1" stopTime="0.00" timeLoss="39.69" rerouteNo="0" devices="tripinfo_southNorth.8 ssm_southNorth.8" vType="carCustom" speedFactor="0.82" vaporized=""/>
    <tripinfo id="southEast.9" depart="125.00" departLane="southJunction_0" departPos="5.10" departSpeed="14.87" departDelay="0.06" arrival="218.00" arrivalLane="junctionEast_0" arrivalPos="492.80" arrivalSpeed="21.81" duration="93.00" routeLength="989.53" waitingTime="0.00" waitingCount="0" stopTime="0.00" timeLoss="47.17" rerouteNo="0" devices="tripinfo_southEast.9 ssm_southEast.9" vType="carCustom" speedFactor="0.90" vaporized=""/>
    <tripinfo id="westEastTop.16" depart="91.00" departLane="westJunction_1" departPos="5.10" departSpeed="3.42" departDelay="6.27" arrival="221.00" arrivalLane="junctionEast_1" arrivalPos="492.80" arrivalSpeed="21.36" duration="130.00" routeLength="994.90" waitingTime="3.00" waitingCount="1" stopTime="0.00" timeLoss="85.10" rerouteNo="0" devices="tripinfo_westEastTop.16 ssm_westEastTop.16" vType="carCustom" speedFactor="1.01" vaporized=""/>
    <tripinfo id="southNorth.9" depart="137.00" departLane="southJunction_1" departPos="5.10" departSpeed="10.22" departDelay="0.61" arrival="225.00" arrivalLane="junctionNorth_0" arrivalPos="492.80" arrivalSpeed="21.89" duration="88.00" routeLength="995.01" waitingTime="3.00" waitingCount="1" stopTime="0.00" timeLoss="43.17" rerouteNo="0" devices="tripinfo_southNorth.9 ssm_southNorth.9" vType="carCustom" speedFactor="0.98" vaporized=""/>
    <tripinfo id="westEastBottom0.12" depart="148.00" departLane="westJunction_0" departPos="5.10" departSpeed="12.41" departDelay="0.21" arrival="225.00" arrivalLane="junctionEast_0" arrivalPos="492.80" arrivalSpeed="21.38" duration="77.00" routeLength="994.90" waitingTime="0.00" waitingCount="0" stopTime="0.00" timeLoss="32.21" rerouteNo="0" devices="tripinfo_westEastBottom0.12 ssm_westEastBottom0.12" vType="carCustom" speedFactor="0.94" vaporized=""/>
    <tripinfo id="westEastTop.17" depart="96.00" departLane="westJunction_1" departPos="5.10" departSpeed="2.46" departDelay="4.29" arrival="229.00" arrivalLane="junctionEast_1" arrivalPos="492.80" arrivalSpeed="21.23" duration="133.00" routeLength="994.90" waitingTime="0.00" waitingCount="0" stopTime="0.00" timeLoss="87.48" rerouteNo="0" devices="tripinfo_westEastTop.17 ssm_westEastTop.17" vType="carCustom" speedFactor="0.93" vaporized=""/>
    <tripinfo id="southEast.10" depart="144.00" departLane="southJunction_0" departPos="5.10" departSpeed="12.00" departDelay="0.53" arrival="233.00" arrivalLane="junctionEast_0" arrivalPos="492.80" arrivalSpeed="21.02" duration="89.00" routeLength="989.53" waitingTime="0.00" waitingCount="0" stopTime="0.00" timeLoss="42.78" rerouteNo="0" devices="tripinfo_southEast.10 ssm_southEast.10" vType="carCustom" speedFactor="0.81" vaporized=""/>
    <tripinfo id="westEastTop.18" depart="101.00" departLane="westJunction_1" departPos="5.10" departSpeed="3.12" departDelay="5.37" arrival="236.00" arrivalLane="junctionEast_1" arrivalPos="492.80" arrivalSpeed="21.33" duration="135.00" routeLength="994.90" waitingTime="0.00" waitingCount="0" stopTime="0.00" timeLoss="89.88" rerouteNo="0" devices="tripinfo_westEastTop.18 ssm_westEastTop.18" vType="carCustom" speedFactor="0.87" vaporized=""/>
    <tripinfo id="southNorth.10" depart="144.00" departLane="southJunction_1" departPos="5.10" departSpeed="11.04" departDelay="0.52" arrival="236.00" arrivalLane="junctionNorth_0" arrivalPos="492.80" arrivalSpeed="21.75" duration="92.00" routeLength="995.01" waitingTime="3.00" waitingCount="1" stopTime="0.00" timeLoss="46.78" rerouteNo="0" devices="tripinfo_southNorth.10 ssm_southNorth.10" vType="carCustom" speedFactor="0.93" vaporized=""/>
    <tripinfo id="westEastBottom0.13" depart="155.00" departLane="westJunction_0" departPos="5.10" departSpeed="17.98" departDelay="0.78" arrival="240.00" arrivalLane="junctionEast_0" arrivalPos="492.80" arrivalSpeed="22.10" duration="85.00" routeLength="994.90" waitingTime="0.00" waitingCount="0" stopTime="0.00" timeLoss="39.81" rerouteNo="0" devices="tripinfo_westEastBottom0.13 ssm_westEastBottom0.13" vType="carCustom" speedFactor="1.00" vaporized=""/>
    <tripinfo id="westEastTop.19" depart="106.00" departLane="westJunction_1" departPos="5.10" departSpeed="3.39" departDelay="9.67" arrival="243.00" arrivalLane="junctionEast_1" arrivalPos="492.80" arrivalSpeed="21.40" duration="137.00" routeLength="994.90" waitingTime="2.00" waitingCount="1" stopTime="0.00" timeLoss="92.08" rerouteNo="0" devices="tripinfo_westEastTop.19 ssm_westEastTop.19" vType="carCustom" speedFactor="1.07" vaporized=""/>
    <tripinfo id="southNorth.11" depart="149.00" departLane="southJunction_1" departPos="5.10" departSpeed="9.76" departDelay="0.07" arrival="246.00" arrivalLane="junctionNorth_0" arrivalPos="492.80" arrivalSpeed="21.21" duration="97.00" routeLength="995.01" waitingTime="4.00" waitingCount="1" stopTime="0.00" timeLoss="52.13" rerouteNo="0" devices="tripinfo_southNorth.11 ssm_southNorth.11" vType="carCustom" speedFactor="1.09" vaporized=""/>
    <tripinfo id="westEastBottom0.14" depart="160.00" departLane="westJunction_0" departPos="5.10" departSpeed="13.40" departDelay="0.78" arrival="247.00" arrivalLane="junctionEast_0" arrivalPos="492.80" arrivalSpeed="21.30" duration="87.00" routeLength="994.90" waitingTime="0.00" waitingCount="0" stopTime="0.00" timeLoss="42.02" rerouteNo="0" devices="tripinfo_westEastBottom0.14 ssm_westEastBottom0.14" vType="carCustom" speedFactor="1.09" vaporized=""/>
    <tripinfo id="westEastTop.20" depart="111.00" departLane="westJunction_1" departPos="5.10" departSpeed="2.79" departDelay="12.59" arrival="251.00" arrivalLane="junctionEast_1" arrivalPos="492.80" arrivalSpeed="21.45" duration="140.00" routeLength="994.90" waitingTime="2.00" waitingCount="1" stopTime="0.00" timeLoss="94.63" rerouteNo="0" devices="tripinfo_westEastTop.20 ssm_westEastTop.20" vType="carCustom" speedFactor="1.13" vaporized=""/>
    <tripinfo id="southEast.11" depart="177.00" departLane="southJunction_0" departPos="5.10" departSpeed="8.74" departDelay="0.66" arrival="254.00" arrivalLane="junctionEast_0" arrivalPos="492.80" arrivalSpeed="21.09" duration="77.00" routeLength="989.53" waitingTime="0.00" waitingCount="0" stopTime="0.00" timeLoss="30.92" rerouteNo="0" devices="tripinfo_southEast.11 ssm_southEast.11" vType="carCustom" speedFactor="1.02" vaporized=""/>
    <tripinfo id="southNorth.12" depart="165.00" departLane="southJunction_1" departPos="5.10" departSpeed="9.03" departDelay="0.68" arrival="258.00" arrivalLane="junctionNorth_0" arrivalPos="492.80" arrivalSpeed="21.47" duration="93.00" routeLength="995.01" waitingTime="6.00" waitingCount="1" stopTime="0.00" timeLoss="47.43" rerouteNo="0" devices="tripinfo_southNorth.12 ssm_southNorth.12" vType="carCustom" speedFactor="1.04" vaporized=""/>
    <tripinfo id="westEastTop.21" depart="116.00" departLane="westJunction_1" departPos="5.10" departSpeed="2.17" departDelay="7.97" arrival="259.00" arrivalLane="junctionEast_1" arrivalPos="492.80" arrivalSpeed="21.38" duration="143.00" routeLength="994.90" waitingTime="4.00" waitingCount="1" stopTime="0.00" timeLoss="97.70" rerouteNo="0" devices="tripinfo_westEastTop.21 ssm_westEastTop.21" vType="carCustom" speedFactor="0.96" vaporized=""/>
    <tripinfo id="westEastBottom0.15" depart="170.00" departLane="westJunction_0" departPos="5.10" departSpeed="11.97" departDelay="0.59" arrival="261.00" arrivalLane="junctionEast_0" arrivalPos="492.80" arrivalSpeed="21.20" duration="91.00" routeLength="994.90" waitingTime="0.00" waitingCount="0" stopTime="0.00" timeLoss="46.10" rerouteNo="0" devices="tripinfo_westEastBottom0.15 ssm_westEastBottom0.15" vType="carCustom" speedFactor="0.92" vaporized=""/>