<?xml version="1.0" encoding="UTF-8"?>

<!-- generated on 2025-04-29 05:10:17 by Eclipse SUMO sumo Version 1.20.0
<configuration xmlns:xsi="http://www.w3.org/2001/XMLSchema-instance" xsi:noNamespaceSchemaLocation="http://sumo.dlr.de/xsd/sumoConfiguration.xsd">

    <input>
        <net-file value="nets/2lane_unprotected_right/2lane_unprotected_right.net.xml"/>
        <route-files value="nets/2lane_unprotected_right/2lane_unprotected_right.rou.xml"/>
    </input>

    <output>
        <tripinfo-output value="traces/transs50f0.5_s50_f1_random/0047_tripinfo.xml"/>
        <collision-output value="traces/transs50f0.5_s50_f1_random/0047_collisions.xml"/>
        <statistic-output value="traces/transs50f0.5_s50_f1_random/0047_statistics.xml"/>
    </output>

    <processing>
        <collision.action value="teleport"/>
        <collision.check-junctions value="true"/>
        <time-to-teleport value="-1"/>
        <waiting-time-memory value="1000"/>
        <max-depart-delay value="-1"/>
        <default.speeddev value="0.1"/>
    </processing>

    <report>
        <no-warnings value="true"/>
    </report>

    <ssm_device>
        <device.ssm.probability value="1.0"/>
        <device.ssm.measures value="BR"/>
        <device.ssm.file value="/Users/finn/Code/CausalKnowledgeTransfer-4-SafeRL/traces/transs50f0.5_s50_f1_random/0047_ssm.xml"/>
    </ssm_device>

    <traci_server>
        <remote-port value="62988"/>
    </traci_server>

    <random_number>
        <random value="true"/>
    </random_number>

</configuration>
-->

<tripinfos xmlns:xsi="http://www.w3.org/2001/XMLSchema-instance" xsi:noNamespaceSchemaLocation="http://sumo.dlr.de/xsd/tripinfo_file.xsd">
    <tripinfo id="southNorth.0" depart="1.00" departLane="southJunction_1" departPos="5.10" departSpeed="22.22" departDelay="0.86" arrival="47.00" arrivalLane="junctionNorth_0" arrivalPos="492.80" arrivalSpeed="22.18" duration="46.00" routeLength="995.01" waitingTime="0.00" waitingCount="0" stopTime="0.00" timeLoss="1.16" rerouteNo="0" devices="tripinfo_southNorth.0 ssm_southNorth.0" vType="carCustom" speedFactor="1.01" vaporized=""/>
    <tripinfo id="southNorth.1" depart="3.00" departLane="southJunction_1" departPos="5.10" departSpeed="20.94" departDelay="1.50" arrival="49.00" arrivalLane="junctionNorth_0" arrivalPos="492.80" arrivalSpeed="21.13" duration="46.00" routeLength="995.01" waitingTime="0.00" waitingCount="0" stopTime="0.00" timeLoss="0.98" rerouteNo="0" devices="tripinfo_southNorth.1 ssm_southNorth.1" vType="carCustom" speedFactor="1.00" vaporized=""/>
    <tripinfo id="westEastTop.0" depart="7.00" departLane="westJunction_1" departPos="5.10" departSpeed="22.22" departDelay="0.16" arrival="54.00" arrivalLane="junctionEast_0" arrivalPos="492.80" arrivalSpeed="22.09" duration="47.00" routeLength="994.90" waitingTime="0.00" waitingCount="0" stopTime="0.00" timeLoss="1.92" rerouteNo="0" devices="tripinfo_westEastTop.0 ssm_westEastTop.0" vType="carCustom" speedFactor="1.04" vaporized=""/>
    <tripinfo id="southNorth.2" depart="9.00" departLane="southJunction_1" departPos="5.10" departSpeed="21.75" departDelay="0.91" arrival="61.00" arrivalLane="junctionNorth_0" arrivalPos="492.80" arrivalSpeed="21.40" duration="52.00" routeLength="995.01" waitingTime="0.00" waitingCount="0" stopTime="0.00" timeLoss="6.98" rerouteNo="0" devices="tripinfo_southNorth.2 ssm_southNorth.2" vType="carCustom" speedFactor="1.11" vaporized=""/>
    <tripinfo id="southNorth.3" depart="19.00" departLane="southJunction_1" departPos="5.10" departSpeed="21.79" departDelay="0.39" arrival="66.00" arrivalLane="junctionNorth_0" arrivalPos="492.80" arrivalSpeed="21.89" duration="47.00" routeLength="995.01" waitingTime="0.00" waitingCount="0" stopTime="0.00" timeLoss="1.53" rerouteNo="0" devices="tripinfo_southNorth.3 ssm_southNorth.3" vType="carCustom" speedFactor="1.15" vaporized=""/>
    <tripinfo id="westEastTop.1" depart="19.00" departLane="westJunction_1" departPos="5.10" departSpeed="21.75" departDelay="0.68" arrival="67.00" arrivalLane="junctionEast_0" arrivalPos="492.80" arrivalSpeed="21.93" duration="48.00" routeLength="994.90" waitingTime="0.00" waitingCount="0" stopTime="0.00" timeLoss="3.19" rerouteNo="0" devices="tripinfo_westEastTop.1 ssm_westEastTop.1" vType="carCustom" speedFactor="0.96" vaporized=""/>
    <tripinfo id="westEastTop.2" depart="21.00" departLane="westJunction_1" departPos="5.10" departSpeed="21.56" departDelay="2.49" arrival="69.00" arrivalLane="junctionEast_0" arrivalPos="492.80" arrivalSpeed="21.13" duration="48.00" routeLength="994.90" waitingTime="0.00" waitingCount="0" stopTime="0.00" timeLoss="2.87" rerouteNo="0" devices="tripinfo_westEastTop.2 ssm_westEastTop.2" vType="carCustom" speedFactor="0.87" vaporized=""/>
    <tripinfo id="westEastTop.3" depart="24.00" departLane="westJunction_1" departPos="5.10" departSpeed="21.41" departDelay="0.40" arrival="71.00" arrivalLane="junctionEast_0" arrivalPos="492.80" arrivalSpeed="21.55" duration="47.00" routeLength="994.90" waitingTime="0.00" waitingCount="0" stopTime="0.00" timeLoss="1.84" rerouteNo="0" devices="tripinfo_westEastTop.3 ssm_westEastTop.3" vType="carCustom" speedFactor="0.97" vaporized=""/>
    <tripinfo id="westEastTop.4" depart="26.00" departLane="westJunction_1" departPos="5.10" departSpeed="21.64" departDelay="1.35" arrival="73.00" arrivalLane="junctionEast_0" arrivalPos="492.80" arrivalSpeed="21.48" duration="47.00" routeLength="994.90" waitingTime="0.00" waitingCount="0" stopTime="0.00" timeLoss="1.65" rerouteNo="0" devices="tripinfo_westEastTop.4 ssm_westEastTop.4" vType="carCustom" speedFactor="1.05" vaporized=""/>
    <tripinfo id="westEastTop.5" depart="30.00" departLane="westJunction_1" departPos="5.10" departSpeed="22.18" departDelay="0.25" arrival="77.00" arrivalLane="junctionEast_0" arrivalPos="492.80" arrivalSpeed="22.02" duration="47.00" routeLength="994.90" waitingTime="0.00" waitingCount="0" stopTime="0.00" timeLoss="1.56" rerouteNo="0" devices="tripinfo_westEastTop.5 ssm_westEastTop.5" vType="carCustom" speedFactor="0.90" vaporized=""/>
    <tripinfo id="westEastTop.6" depart="34.00" departLane="westJunction_1" departPos="5.10" departSpeed="21.65" departDelay="0.72" arrival="81.00" arrivalLane="junctionEast_1" arrivalPos="492.80" arrivalSpeed="21.60" duration="47.00" routeLength="994.90" waitingTime="0.00" waitingCount="0" stopTime="0.00" timeLoss="1.42" rerouteNo="0" devices="tripinfo_westEastTop.6 ssm_westEastTop.6" vType="carCustom" speedFactor="0.99" vaporized=""/>
    <tripinfo id="westEastBottom0.0" depart="35.00" departLane="westJunction_0" departPos="5.10" departSpeed="22.22" departDelay="0.58" arrival="82.00" arrivalLane="junctionEast_0" arrivalPos="492.80" arrivalSpeed="21.07" duration="47.00" routeLength="994.90" waitingTime="0.00" waitingCount="0" stopTime="0.00" timeLoss="1.59" rerouteNo="0" devices="tripinfo_westEastBottom0.0 ssm_westEastBottom0.0" vType="carCustom" speedFactor="0.97" vaporized=""/>
    <tripinfo id="southEast.0" depart="27.00" departLane="southJunction_0" departPos="5.10" departSpeed="22.22" departDelay="0.44" arrival="85.00" arrivalLane="junctionEast_0" arrivalPos="492.80" arrivalSpeed="21.04" duration="58.00" routeLength="989.53" waitingTime="2.00" waitingCount="1" stopTime="0.00" timeLoss="11.53" rerouteNo="0" devices="tripinfo_southEast.0 ssm_southEast.0" vType="carCustom" speedFactor="0.82" vaporized=""/>
    <tripinfo id="westEastTop.7" depart="38.00" departLane="westJunction_1" departPos="5.10" departSpeed="21.74" departDelay="0.70" arrival="85.00" arrivalLane="junctionEast_1" arrivalPos="492.80" arrivalSpeed="21.30" duration="47.00" routeLength="994.90" waitingTime="0.00" waitingCount="0" stopTime="0.00" timeLoss="1.54" rerouteNo="0" devices="tripinfo_westEastTop.7 ssm_westEastTop.7" vType="carCustom" speedFactor="0.78" vaporized=""/>
    <tripinfo id="southEast.1" depart="30.00" departLane="southJunction_0" departPos="5.10" departSpeed="21.89" departDelay="0.94" arrival="87.00" arrivalLane="junctionEast_0" arrivalPos="492.80" arrivalSpeed="21.24" duration="57.00" routeLength="989.53" waitingTime="0.00" waitingCount="0" stopTime="0.00" timeLoss="11.38" rerouteNo="0" devices="tripinfo_southEast.1 ssm_southEast.1" vType="carCustom" speedFactor="0.96" vaporized=""/>
    <tripinfo id="southEast.2" depart="36.00" departLane="southJunction_0" departPos="5.10" departSpeed="21.21" departDelay="0.19" arrival="90.00" arrivalLane="junctionEast_0" arrivalPos="492.80" arrivalSpeed="21.15" duration="54.00" routeLength="989.53" waitingTime="0.00" waitingCount="0" stopTime="0.00" timeLoss="8.31" rerouteNo="0" devices="tripinfo_southEast.2 ssm_southEast.2" vType="carCustom" speedFactor="0.98" vaporized=""/>
    <tripinfo id="westEastTop.8" depart="47.00" departLane="westJunction_1" departPos="5.10" departSpeed="22.21" departDelay="0.99" arrival="93.00" arrivalLane="junctionEast_1" arrivalPos="492.80" arrivalSpeed="21.87" duration="46.00" routeLength="994.90" waitingTime="0.00" waitingCount="0" stopTime="0.00" timeLoss="1.17" rerouteNo="0" devices="tripinfo_westEastTop.8 ssm_westEastTop.8" vType="carCustom" speedFactor="0.88" vaporized=""/>
    <tripinfo id="southEast.3" depart="39.00" departLane="southJunction_0" departPos="5.10" departSpeed="21.21" departDelay="0.30" arrival="94.00" arrivalLane="junctionEast_0" arrivalPos="492.80" arrivalSpeed="21.91" duration="55.00" routeLength="989.53" waitingTime="0.00" waitingCount="0" stopTime="0.00" timeLoss="8.68" rerouteNo="0" devices="tripinfo_southEast.3 ssm_southEast.3" vType="carCustom" speedFactor="0.93" vaporized=""/>
    <tripinfo id="southEast.4" depart="48.00" departLane="southJunction_0" departPos="5.10" departSpeed="21.13" departDelay="0.97" arrival="100.00" arrivalLane="junctionEast_0" arrivalPos="492.80" arrivalSpeed="21.69" duration="52.00" routeLength="989.53" waitingTime="0.00" waitingCount="0" stopTime="0.00" timeLoss="6.44" rerouteNo="0" devices="tripinfo_southEast.4 ssm_southEast.4" vType="carCustom" speedFactor="0.85" vaporized=""/>
    <tripinfo id="southEast.5" depart="50.00" departLane="southJunction_0" departPos="5.10" departSpeed="21.21" departDelay="0.40" arrival="102.00" arrivalLane="junctionEast_0" arrivalPos="492.80" arrivalSpeed="22.04" duration="52.00" routeLength="989.53" waitingTime="0.00" waitingCount="0" stopTime="0.00" timeLoss="6.01" rerouteNo="0" devices="tripinfo_southEast.5 ssm_southEast.5" vType="carCustom" speedFactor="1.03" vaporized=""/>
    <tripinfo id="westEastTop.9" depart="58.00" departLane="westJunction_1" departPos="5.10" departSpeed="22.04" departDelay="0.55" arrival="105.00" arrivalLane="junctionEast_0" arrivalPos="492.80" arrivalSpeed="22.19" duration="47.00" routeLength="994.90" waitingTime="0.00" waitingCount="0" stopTime="0.00" timeLoss="1.31" rerouteNo="0" devices="tripinfo_westEastTop.9 ssm_westEastTop.9" vType="carCustom" speedFactor="0.99" vaporized=""/>
    <tripinfo id="southEast.6" depart="55.00" departLane="southJunction_0" departPos="5.10" departSpeed="21.88" departDelay="0.67" arrival="106.00" arrivalLane="junctionEast_0" arrivalPos="492.80" arrivalSpeed="21.67" duration="51.00" routeLength="989.53" waitingTime="0.00" waitingCount="0" stopTime="0.00" timeLoss="5.84" rerouteNo="0" devices="tripinfo_southEast.6 ssm_southEast.6" vType="carCustom" speedFactor="1.04" vaporized=""/>
    <tripinfo id="southNorth.4" depart="61.00" departLane="southJunction_1" departPos="5.10" departSpeed="22.22" departDelay="0.72" arrival="108.00" arrivalLane="junctionNorth_0" arrivalPos="492.80" arrivalSpeed="21.24" duration="47.00" routeLength="995.01" waitingTime="0.00" waitingCount="0" stopTime="0.00" timeLoss="1.87" rerouteNo="0" devices="tripinfo_southNorth.4 ssm_southNorth.4" vType="carCustom" speedFactor="0.75" vaporized=""/>
    <tripinfo id="southEast.7" depart="57.00" departLane="southJunction_0" departPos="5.10" departSpeed="21.47" departDelay="0.62" arrival="110.00" arrivalLane="junctionEast_0" arrivalPos="492.80" arrivalSpeed="22.00" duration="53.00" routeLength="989.53" waitingTime="0.00" waitingCount="0" stopTime="0.00" timeLoss="7.07" rerouteNo="0" devices="tripinfo_southEast.7 ssm_southEast.7" vType="carCustom" speedFactor="1.06" vaporized=""/>
    <tripinfo id="westEastTop.10" depart="61.00" departLane="westJunction_1" departPos="5.10" departSpeed="22.04" departDelay="0.72" arrival="115.00" arrivalLane="junctionEast_0" arrivalPos="492.80" arrivalSpeed="22.10" duration="54.00" routeLength="994.90" waitingTime="0.00" waitingCount="0" stopTime="0.00" timeLoss="9.17" rerouteNo="0" devices="tripinfo_westEastTop.10 ssm_westEastTop.10" vType="carCustom" speedFactor="0.95" vaporized=""/>
    <tripinfo id="southNorth.5" depart="71.00" departLane="southJunction_1" departPos="5.10" departSpeed="21.11" departDelay="0.21" arrival="118.00" arrivalLane="junctionNorth_0" arrivalPos="492.80" arrivalSpeed="21.58" duration="47.00" routeLength="995.01" waitingTime="0.00" waitingCount="0" stopTime="0.00" timeLoss="1.76" rerouteNo="0" devices="tripinfo_southNorth.5 ssm_southNorth.5" vType="carCustom" speedFactor="1.07" vaporized=""/>
    <tripinfo id="southEast.8" depart="68.00" departLane="southJunction_0" departPos="5.10" departSpeed="22.19" departDelay="0.41" arrival="121.00" arrivalLane="junctionEast_0" arrivalPos="492.80" arrivalSpeed="21.07" duration="53.00" routeLength="989.53" waitingTime="0.00" waitingCount="0" stopTime="0.00" timeLoss="6.86" rerouteNo="0" devices="tripinfo_southEast.8 ssm_southEast.8" vType="carCustom" speedFactor="0.98" vaporized=""/>
    <tripinfo id="westEastTop.11" depart="71.00" departLane="westJunction_1" departPos="5.10" departSpeed="21.93" departDelay="0.51" arrival="126.00" arrivalLane="junctionEast_0" arrivalPos="492.80" arrivalSpeed="21.91" duration="55.00" routeLength="994.90" waitingTime="1.00" waitingCount="1" stopTime="0.00" timeLoss="9.63" rerouteNo="0" devices="tripinfo_westEastTop.11 ssm_westEastTop.11" vType="carCustom" speedFactor="1.17" vaporized=""/>
    <tripinfo id="westEastTop.12" depart="75.00" departLane="westJunction_1" departPos="5.10" departSpeed="22.12" departDelay="0.51" arrival="128.00" arrivalLane="junctionEast_0" arrivalPos="492.80" arrivalSpeed="21.21" duration="53.00" routeLength="994.90" waitingTime="0.00" waitingCount="0" stopTime="0.00" timeLoss="7.35" rerouteNo="0" devices="tripinfo_westEastTop.12 ssm_westEastTop.12" vType="carCustom" speedFactor="1.03" vaporized=""/>
    <tripinfo id="southNorth.6" depart="76.00" departLane="southJunction_1" departPos="5.10" departSpeed="21.34" departDelay="0.37" arrival="130.00" arrivalLane="junctionNorth_0" arrivalPos="492.80" arrivalSpeed="21.90" duration="54.00" routeLength="995.01" waitingTime="0.00" waitingCount="0" stopTime="0.00" timeLoss="8.80" rerouteNo="0" devices="tripinfo_southNorth.6 ssm_southNorth.6" vType="carCustom" speedFactor="1.01" vaporized=""/>
    <tripinfo id="westEastBottom0.1" depart="84.00" departLane="westJunction_0" departPos="5.10" departSpeed="22.22" departDelay="0.13" arrival="133.00" arrivalLane="junctionEast_0" arrivalPos="492.80" arrivalSpeed="21.90" duration="49.00" routeLength="994.90" waitingTime="0.00" waitingCount="0" stopTime="0.00" timeLoss="3.69" rerouteNo="0" devices="tripinfo_westEastBottom0.1 ssm_westEastBottom0.1" vType="carCustom" speedFactor="0.85" vaporized=""/>
    <tripinfo id="southEast.9" depart="87.00" departLane="southJunction_0" departPos="5.10" departSpeed="21.53" departDelay="0.15" arrival="141.00" arrivalLane="junctionEast_0" arrivalPos="492.80" arrivalSpeed="21.82" duration="54.00" routeLength="989.53" waitingTime="0.00" waitingCount="0" stopTime="0.00" timeLoss="7.93" rerouteNo="0" devices="tripinfo_southEast.9 ssm_southEast.9" vType="carCustom" speedFactor="0.92" vaporized=""/>
    <tripinfo id="westEastTop.13" depart="91.00" departLane="westJunction_1" departPos="5.10" departSpeed="21.51" departDelay="0.71" arrival="146.00" arrivalLane="junctionEast_0" arrivalPos="492.80" arrivalSpeed="21.52" duration="55.00" routeLength="994.90" waitingTime="1.00" waitingCount="1" stopTime="0.00" timeLoss="9.41" rerouteNo="0" devices="tripinfo_westEastTop.13 ssm_westEastTop.13" vType="carCustom" speedFactor="0.89" vaporized=""/>
    <tripinfo id="westEastTop.14" depart="93.00" departLane="westJunction_1" departPos="5.10" departSpeed="22.00" departDelay="2.42" arrival="148.00" arrivalLane="junctionEast_0" arrivalPos="492.80" arrivalSpeed="21.49" duration="55.00" routeLength="994.90" waitingTime="0.00" waitingCount="0" stopTime="0.00" timeLoss="9.48" rerouteNo="0" devices="tripinfo_westEastTop.14 ssm_westEastTop.14" vType="carCustom" speedFactor="1.14" vaporized=""/>
    <tripinfo id="southEast.10" depart="98.00" departLane="southJunction_0" departPos="5.10" departSpeed="21.43" departDelay="0.87" arrival="150.00" arrivalLane="junctionEast_0" arrivalPos="492.80" arrivalSpeed="20.97" duration="52.00" routeLength="989.53" waitingTime="0.00" waitingCount="0" stopTime="0.00" timeLoss="6.05" rerouteNo="0" devices="tripinfo_southEast.10 ssm_southEast.10" vType="carCustom" speedFactor="1.07" vaporized=""/>
    <tripinfo id="southNorth.7" depart="95.00" departLane="southJunction_1" departPos="5.10" departSpeed="20.93" departDelay="0.73" arrival="151.00" arrivalLane="junctionNorth_0" arrivalPos="492.80" arrivalSpeed="21.42" duration="56.00" routeLength="995.01" waitingTime="5.00" waitingCount="1" stopTime="0.00" timeLoss="10.75" rerouteNo="0" devices="tripinfo_southNorth.7 ssm_southNorth.7" vType="carCustom" speedFactor="0.99" vaporized=""/>
    <tripinfo id="southNorth.8" depart="101.00" departLane="southJunction_1" departPos="5.10" departSpeed="21.48" departDelay="0.54" arrival="153.00" arrivalLane="junctionNorth_0" arrivalPos="492.80" arrivalSpeed="21.21" duration="52.00" routeLength="995.01" waitingTime="0.00" waitingCount="0" stopTime="0.00" timeLoss="6.52" rerouteNo="0" devices="tripinfo_southNorth.8 ssm_southNorth.8" vType="carCustom" speedFactor="1.12" vaporized=""/>
    <tripinfo id="westEastBottom0.2" depart="102.00" departLane="westJunction_0" departPos="5.10" departSpeed="22.22" departDelay="0.29" arrival="155.00" arrivalLane="junctionEast_0" arrivalPos="492.80" arrivalSpeed="21.99" duration="53.00" routeLength="994.90" waitingTime="0.00" waitingCount="0" stopTime="0.00" timeLoss="7.53" rerouteNo="0" devices="tripinfo_westEastBottom0.2 ssm_westEastBottom0.2" vType="carCustom" speedFactor="1.08" vaporized=""/>
    <tripinfo id="westEastTop.15" depart="96.00" departLane="westJunction_1" departPos="5.10" departSpeed="21.05" departDelay="0.38" arrival="156.00" arrivalLane="junctionEast_1" arrivalPos="492.80" arrivalSpeed="21.07" duration="60.00" routeLength="994.90" waitingTime="2.00" waitingCount="1" stopTime="0.00" timeLoss="14.67" rerouteNo="0" devices="tripinfo_westEastTop.15 ssm_westEastTop.15" vType="carCustom" speedFactor="0.84" vaporized=""/>
    <tripinfo id="westEastTop.16" depart="102.00" departLane="westJunction_1" departPos="5.10" departSpeed="20.95" departDelay="0.34" arrival="158.00" arrivalLane="junctionEast_0" arrivalPos="492.80" arrivalSpeed="21.57" duration="56.00" routeLength="994.90" waitingTime="0.00" waitingCount="0" stopTime="0.00" timeLoss="10.49" rerouteNo="0" devices="tripinfo_westEastTop.16 ssm_westEastTop.16" vType="carCustom" speedFactor="1.12" vaporized=""/>
    <tripinfo id="westEastTop.17" depart="108.00" departLane="westJunction_1" departPos="5.10" departSpeed="22.06" departDelay="0.84" arrival="159.00" arrivalLane="junctionEast_0" arrivalPos="492.80" arrivalSpeed="21.95" duration="51.00" routeLength="994.90" waitingTime="0.00" waitingCount="0" stopTime="0.00" timeLoss="6.10" rerouteNo="0" devices="tripinfo_westEastTop.17 ssm_westEastTop.17" vType="carCustom" speedFactor="1.06" vaporized=""/>
    <tripinfo id="westEastTop.18" depart="111.00" departLane="westJunction_1" departPos="5.10" departSpeed="21.56" departDelay="0.08" arrival="161.00" arrivalLane="junctionEast_0" arrivalPos="492.80" arrivalSpeed="21.04" duration="50.00" routeLength="994.90" waitingTime="0.00" waitingCount="0" stopTime="0.00" timeLoss="4.79" rerouteNo="0" devices="tripinfo_westEastTop.18 ssm_westEastTop.18" vType="carCustom" speedFactor="1.04" vaporized=""/>
    <tripinfo id="southNorth.9" depart="113.00" departLane="southJunction_1" departPos="5.10" departSpeed="21.73" departDelay="0.25" arrival="163.00" arrivalLane="junctionNorth_0" arrivalPos="492.80" arrivalSpeed="21.18" duration="50.00" routeLength="995.01" waitingTime="0.00" waitingCount="0" stopTime="0.00" timeLoss="5.09" rerouteNo="0" devices="tripinfo_southNorth.9 ssm_southNorth.9" vType="carCustom" speedFactor="1.01" vaporized=""/>
    <tripinfo id="southEast.11" depart="113.00" departLane="southJunction_0" departPos="5.10" departSpeed="22.03" departDelay="0.67" arrival="165.00" arrivalLane="junctionEast_0" arrivalPos="492.80" arrivalSpeed="21.13" duration="52.00" routeLength="989.53" waitingTime="0.00" waitingCount="0" stopTime="0.00" timeLoss="6.22" rerouteNo="0" devices="tripinfo_southEast.11 ssm_southEast.11" vType="carCustom" speedFactor="0.92" vaporized=""/>
    <tripinfo id="southEast.12" depart="115.00" departLane="southJunction_0" departPos="5.10" departSpeed="20.94" departDelay="1.64" arrival="168.00" arrivalLane="junctionEast_0" arrivalPos="492.80" arrivalSpeed="21.90" duration="53.00" routeLength="989.53" waitingTime="0.00" waitingCount="0" stopTime="0.00" timeLoss="6.93" rerouteNo="0" devices="tripinfo_southEast.12 ssm_southEast.12" vType="carCustom" speedFactor="1.04" vaporized=""/>
    <tripinfo id="southEast.13" depart="117.00" departLane="southJunction_0" departPos="5.10" departSpeed="21.67" departDelay="3.44" arrival="170.00" arrivalLane="junctionEast_0" arrivalPos="492.80" arrivalSpeed="22.12" duration="53.00" routeLength="989.53" waitingTime="0.00" waitingCount="0" stopTime="0.00" timeLoss="7.15" rerouteNo="0" devices="tripinfo_southEast.13 ssm_southEast.13" vType="carCustom" speedFactor="1.05" vaporized=""/>
    <tripinfo id="westEastTop.19" depart="113.00" departLane="westJunction_1" departPos="5.10" departSpeed="21.62" departDelay="0.01" arrival="171.00" arrivalLane="junctionEast_1" arrivalPos="492.80" arrivalSpeed="22.04" duration="58.00" routeLength="994.90" waitingTime="3.00" waitingCount="1" stopTime="0.00" timeLoss="12.74" rerouteNo="0" devices="tripinfo_westEastTop.19 ssm_westEastTop.19" vType="carCustom" speedFactor="0.92" vaporized=""/>
    <tripinfo id="westEastBottom0.3" depart="117.00" departLane="westJunction_0" departPos="5.10" departSpeed="21.49" departDelay="0.33" arrival="173.00" arrivalLane="junctionEast_0" arrivalPos="492.80" arrivalSpeed="21.73" duration="56.00" routeLength="994.90" waitingTime="0.00" waitingCount="0" stopTime="0.00" timeLoss="10.38" rerouteNo="0" devices="tripinfo_westEastBottom0.3 ssm_westEastBottom0.3" vType="carCustom" speedFactor="0.86" vaporized=""/>
    <tripinfo id="southEast.14" depart="120.00" departLane="southJunction_0" departPos="5.10" departSpeed="21.49" departDelay="0.62" arrival="174.00" arrivalLane="junctionEast_0" arrivalPos="492.80" arrivalSpeed="21.47" duration="54.00" routeLength="989.53" waitingTime="0.00" waitingCount="0" stopTime="0.00" timeLoss="7.68" rerouteNo="0" devices="tripinfo_southEast.14 ssm_southEast.14" vType="carCustom" speedFactor="0.88" vaporized=""/>
    <tripinfo id="westEastTop.20" depart="137.00" departLane="westJunction_1" departPos="5.10" departSpeed="20.85" departDelay="0.65" arrival="191.00" arrivalLane="junctionEast_0" arrivalPos="492.80" arrivalSpeed="22.09" duration="54.00" routeLength="994.90" waitingTime="1.00" waitingCount="1" stopTime="0.00" timeLoss="9.08" rerouteNo="0" devices="tripinfo_westEastTop.20 ssm_westEastTop.20" vType="carCustom" speedFactor="1.04" vaporized=""/>
    <tripinfo id="westEastTop.21" depart="139.00" departLane="westJunction_1" departPos="5.10" departSpeed="21.49" departDelay="1.74" arrival="194.00" arrivalLane="junctionEast_0" arrivalPos="492.80" arrivalSpeed="22.04" duration="55.00" routeLength="994.90" waitingTime="0.00" waitingCount="0" stopTime="0.00" timeLoss="9.37" rerouteNo="0" devices="tripinfo_westEastTop.21 ssm_westEastTop.21" vType="carCustom" speedFactor="1.01" vaporized=""/>
    <tripinfo id="westEastTop.22" depart="141.00" departLane="westJunction_1" departPos="5.10" departSpeed="21.16" departDelay="2.48" arrival="195.00" arrivalLane="junctionEast_0" arrivalPos="492.80" arrivalSpeed="22.09" duration="54.00" routeLength="994.90" waitingTime="0.00" waitingCount="0" stopTime="0.00" timeLoss="9.02" rerouteNo="0" devices="tripinfo_westEastTop.22 ssm_westEastTop.22" vType="carCustom" speedFactor="0.81" vaporized=""/>
    <tripinfo id="westEastTop.23" depart="143.00" departLane="westJunction_1" departPos="5.10" departSpeed="21.57" departDelay="2.87" arrival="197.00" arrivalLane="junctionEast_0" arrivalPos="492.80" arrivalSpeed="21.18" duration="54.00" routeLength="994.90" waitingTime="0.00" waitingCount="0" stopTime="0.00" timeLoss="8.82" rerouteNo="0" devices="tripinfo_westEastTop.23 ssm_westEastTop.23" vType="carCustom" speedFactor="0.92" vaporized=""/>
    <tripinfo id="westEastTop.24" depart="145.00" departLane="westJunction_1" departPos="5.10" departSpeed="21.91" departDelay="4.63" arrival="199.00" arrivalLane="junctionEast_0" arrivalPos="492.80" arrivalSpeed="21.07" duration="54.00" routeLength="994.90" waitingTime="0.00" waitingCount="0" stopTime="0.00" timeLoss="8.45" rerouteNo="0" devices="tripinfo_westEastTop.24 ssm_westEastTop.24" vType="carCustom" speedFactor="1.03" vaporized=""/>
    <tripinfo id="southNorth.10" depart="150.00" departLane="southJunction_1" departPos="5.10" departSpeed="22.22" departDelay="0.46" arrival="201.00" arrivalLane="junctionNorth_0" arrivalPos="492.80" arrivalSpeed="21.85" duration="51.00" routeLength="995.01" waitingTime="0.00" waitingCount="0" stopTime="0.00" timeLoss="5.41" rerouteNo="0" devices="tripinfo_southNorth.10 ssm_southNorth.10" vType="carCustom" speedFactor="1.16" vaporized=""/>
    <tripinfo id="southEast.18" depart="173.00" departLane="southJunction_0" departPos="5.10" departSpeed="21.46" departDelay="0.32" arrival="205.00" arrivalLane="junctionEast_0" arrivalPos="492.80" arrivalSpeed="6.24" duration="32.00" routeLength="989.53" waitingTime="0.00" waitingCount="0" stopTime="0.00" timeLoss="9.17" rerouteNo="0" devices="tripinfo_southEast.18 ssm_southEast.18" vType="carCustom" speedFactor="1.03" vaporized="teleport"/>
    <tripinfo id="westEastBottom0.4" depart="153.00" departLane="westJunction_0" departPos="5.10" departSpeed="22.22" departDelay="0.71" arrival="206.00" arrivalLane="junctionEast_0" arrivalPos="492.80" arrivalSpeed="22.17" duration="53.00" routeLength="994.90" waitingTime="0.00" waitingCount="0" stopTime="0.00" timeLoss="7.81" rerouteNo="0" devices="tripinfo_westEastBottom0.4 ssm_westEastBottom0.4" vType="carCustom" speedFactor="0.95" vaporized=""/>
    <tripinfo id="westEastTop.25" depart="147.00" departLane="westJunction_1" departPos="5.10" departSpeed="21.07" departDelay="6.09" arrival="208.00" arrivalLane="junctionEast_1" arrivalPos="492.80" arrivalSpeed="21.62" duration="61.00" routeLength="994.90" waitingTime="2.00" waitingCount="1" stopTime="0.00" timeLoss="15.93" rerouteNo="0" devices="tripinfo_westEastTop.25 ssm_westEastTop.25" vType="carCustom" speedFactor="1.00" vaporized=""/>
    <tripinfo id="westEastBottom0.5" depart="155.00" departLane="westJunction_0" departPos="5.10" departSpeed="21.27" departDelay="1.35" arrival="208.00" arrivalLane="junctionEast_0" arrivalPos="492.80" arrivalSpeed="21.45" duration="53.00" routeLength="994.90" waitingTime="0.00" waitingCount="0" stopTime="0.00" timeLoss="7.49" rerouteNo="0" devices="tripinfo_westEastBottom0.5 ssm_westEastBottom0.5" vType="carCustom" speedFactor="1.16" vaporized=""/>
    <tripinfo id="westEastTop.26" depart="149.00" departLane="westJunction_1" departPos="5.10" departSpeed="21.48" departDelay="7.21" arrival="210.00" arrivalLane="junctionEast_0" arrivalPos="492.80" arrivalSpeed="21.07" duration="61.00" routeLength="994.90" waitingTime="0.00" waitingCount="0" stopTime="0.00" timeLoss="15.80" rerouteNo="0" devices="tripinfo_westEastTop.26 ssm_westEastTop.26" vType="carCustom" speedFactor="1.11" vaporized=""/>
    <tripinfo id="southNorth.11" depart="158.00" departLane="southJunction_1" departPos="5.10" departSpeed="21.01" departDelay="0.95" arrival="213.00" arrivalLane="junctionNorth_0" arrivalPos="492.80" arrivalSpeed="22.20" duration="55.00" routeLength="995.01" waitingTime="0.00" waitingCount="0" stopTime="0.00" timeLoss="9.73" rerouteNo="0" devices="tripinfo_southNorth.11 ssm_southNorth.11" vType="carCustom" speedFactor="1.00" vaporized=""/>
    <tripinfo id="westEastTop.27" depart="151.00" departLane="westJunction_1" departPos="5.10" departSpeed="22.20" departDelay="8.55" arrival="218.00" arrivalLane="junctionEast_0" arrivalPos="492.80" arrivalSpeed="21.56" duration="67.00" routeLength="994.90" waitingTime="1.00" waitingCount="1" stopTime="0.00" timeLoss="21.98" rerouteNo="0" devices="tripinfo_westEastTop.27 ssm_westEastTop.27" vType="carCustom" speedFactor="1.04" vaporized=""/>
    <tripinfo id="westEastTop.28" depart="154.00" departLane="westJunction_1" departPos="5.10" departSpeed="21.56" departDelay="0.86" arrival="220.00" arrivalLane="junctionEast_1" arrivalPos="492.80" arrivalSpeed="21.19" duration="66.00" routeLength="994.90" waitingTime="1.00" waitingCount="1" stopTime="0.00" timeLoss="20.54" rerouteNo="0" devices="tripinfo_westEastTop.28 ssm_westEastTop.28" vType="carCustom" speedFactor="1.04" vaporized=""/>