<?xml version="1.0" encoding="UTF-8"?>

<!-- generated on 2025-04-29 05:21:03 by Eclipse SUMO sumo Version 1.20.0
<configuration xmlns:xsi="http://www.w3.org/2001/XMLSchema-instance" xsi:noNamespaceSchemaLocation="http://sumo.dlr.de/xsd/sumoConfiguration.xsd">

    <input>
        <net-file value="nets/2lane_unprotected_right/2lane_unprotected_right.net.xml"/>
        <route-files value="nets/2lane_unprotected_right/2lane_unprotected_right.rou.xml"/>
    </input>

    <output>
        <tripinfo-output value="traces/transs50f0.5_s50_f1_random/0059_tripinfo.xml"/>
        <collision-output value="traces/transs50f0.5_s50_f1_random/0059_collisions.xml"/>
        <statistic-output value="traces/transs50f0.5_s50_f1_random/0059_statistics.xml"/>
    </output>

    <processing>
        <collision.action value="teleport"/>
        <collision.check-junctions value="true"/>
        <time-to-teleport value="-1"/>
        <waiting-time-memory value="1000"/>
        <max-depart-delay value="-1"/>
        <default.speeddev value="0.1"/>
    </processing>

    <report>
        <no-warnings value="true"/>
    </report>

    <ssm_device>
        <device.ssm.probability value="1.0"/>
        <device.ssm.measures value="BR"/>
        <device.ssm.file value="/Users/finn/Code/CausalKnowledgeTransfer-4-SafeRL/traces/transs50f0.5_s50_f1_random/0059_ssm.xml"/>
    </ssm_device>

    <traci_server>
        <remote-port value="63136"/>
    </traci_server>

    <random_number>
        <random value="true"/>
    </random_number>

</configuration>
-->

<tripinfos xmlns:xsi="http://www.w3.org/2001/XMLSchema-instance" xsi:noNamespaceSchemaLocation="http://sumo.dlr.de/xsd/tripinfo_file.xsd">
    <tripinfo id="westEastTop.0" depart="1.00" departLane="westJunction_1" departPos="5.10" departSpeed="8.33" departDelay="0.63" arrival="131.00" arrivalLane="junctionEast_0" arrivalPos="492.80" arrivalSpeed="8.22" duration="130.00" routeLength="994.90" waitingTime="0.00" waitingCount="0" stopTime="0.00" timeLoss="10.40" rerouteNo="0" devices="tripinfo_westEastTop.0 ssm_westEastTop.0" vType="carCustom" speedFactor="0.99" vaporized=""/>
    <tripinfo id="westEastBottom0.0" depart="9.00" departLane="westJunction_0" departPos="5.10" departSpeed="8.33" departDelay="0.37" arrival="139.00" arrivalLane="junctionEast_0" arrivalPos="492.80" arrivalSpeed="8.10" duration="130.00" routeLength="994.90" waitingTime="0.00" waitingCount="0" stopTime="0.00" timeLoss="10.35" rerouteNo="0" devices="tripinfo_westEastBottom0.0 ssm_westEastBottom0.0" vType="carCustom" speedFactor="0.92" vaporized=""/>
    <tripinfo id="westEastTop.1" depart="3.00" departLane="westJunction_1" departPos="5.10" departSpeed="8.17" departDelay="0.60" arrival="140.00" arrivalLane="junctionEast_0" arrivalPos="492.80" arrivalSpeed="7.35" duration="137.00" routeLength="994.90" waitingTime="0.00" waitingCount="0" stopTime="0.00" timeLoss="16.80" rerouteNo="0" devices="tripinfo_westEastTop.1 ssm_westEastTop.1" vType="carCustom" speedFactor="1.07" vaporized=""/>
    <tripinfo id="westEastTop.2" depart="6.00" departLane="westJunction_1" departPos="5.10" departSpeed="6.58" departDelay="3.17" arrival="143.00" arrivalLane="junctionEast_1" arrivalPos="492.80" arrivalSpeed="8.08" duration="137.00" routeLength="994.90" waitingTime="0.00" waitingCount="0" stopTime="0.00" timeLoss="16.99" rerouteNo="0" devices="tripinfo_westEastTop.2 ssm_westEastTop.2" vType="carCustom" speedFactor="1.07" vaporized=""/>
    <tripinfo id="southEast.0" depart="8.00" departLane="southJunction_0" departPos="5.10" departSpeed="8.33" departDelay="0.33" arrival="144.00" arrivalLane="junctionEast_0" arrivalPos="492.80" arrivalSpeed="8.21" duration="136.00" routeLength="989.53" waitingTime="3.00" waitingCount="1" stopTime="0.00" timeLoss="16.45" rerouteNo="0" devices="tripinfo_southEast.0 ssm_southEast.0" vType="carCustom" speedFactor="1.08" vaporized=""/>
    <tripinfo id="southEast.1" depart="11.00" departLane="southJunction_0" departPos="5.10" departSpeed="7.12" departDelay="0.36" arrival="147.00" arrivalLane="junctionEast_0" arrivalPos="492.80" arrivalSpeed="7.39" duration="136.00" routeLength="989.53" waitingTime="0.00" waitingCount="0" stopTime="0.00" timeLoss="16.88" rerouteNo="0" devices="tripinfo_southEast.1 ssm_southEast.1" vType="carCustom" speedFactor="1.18" vaporized=""/>
    <tripinfo id="westEastTop.3" depart="9.00" departLane="westJunction_1" departPos="5.10" departSpeed="6.92" departDelay="1.53" arrival="148.00" arrivalLane="junctionEast_1" arrivalPos="492.80" arrivalSpeed="8.07" duration="139.00" routeLength="994.90" waitingTime="1.00" waitingCount="1" stopTime="0.00" timeLoss="19.55" rerouteNo="0" devices="tripinfo_westEastTop.3 ssm_westEastTop.3" vType="carCustom" speedFactor="0.99" vaporized=""/>
    <tripinfo id="westEastBottom0.1" depart="18.00" departLane="westJunction_0" departPos="5.10" departSpeed="7.36" departDelay="0.84" arrival="150.00" arrivalLane="junctionEast_0" arrivalPos="492.80" arrivalSpeed="8.10" duration="132.00" routeLength="994.90" waitingTime="0.00" waitingCount="0" stopTime="0.00" timeLoss="12.27" rerouteNo="0" devices="tripinfo_westEastBottom0.1 ssm_westEastBottom0.1" vType="carCustom" speedFactor="0.99" vaporized=""/>
    <tripinfo id="southNorth.0" depart="22.00" departLane="southJunction_1" departPos="5.10" departSpeed="8.33" departDelay="0.77" arrival="154.00" arrivalLane="junctionNorth_0" arrivalPos="492.80" arrivalSpeed="7.34" duration="132.00" routeLength="995.01" waitingTime="0.00" waitingCount="0" stopTime="0.00" timeLoss="11.73" rerouteNo="0" devices="tripinfo_southNorth.0 ssm_southNorth.0" vType="carCustom" speedFactor="1.05" vaporized=""/>
    <tripinfo id="southNorth.1" depart="25.00" departLane="southJunction_1" departPos="5.10" departSpeed="7.12" departDelay="0.72" arrival="157.00" arrivalLane="junctionNorth_0" arrivalPos="492.80" arrivalSpeed="7.05" duration="132.00" routeLength="995.01" waitingTime="0.00" waitingCount="0" stopTime="0.00" timeLoss="11.96" rerouteNo="0" devices="tripinfo_southNorth.1 ssm_southNorth.1" vType="carCustom" speedFactor="0.87" vaporized=""/>
    <tripinfo id="westEastTop.4" depart="25.00" departLane="westJunction_1" departPos="5.10" departSpeed="7.35" departDelay="0.00" arrival="158.00" arrivalLane="junctionEast_1" arrivalPos="492.80" arrivalSpeed="8.07" duration="133.00" routeLength="994.90" waitingTime="1.00" waitingCount="1" stopTime="0.00" timeLoss="13.53" rerouteNo="0" devices="tripinfo_westEastTop.4 ssm_westEastTop.4" vType="carCustom" speedFactor="0.78" vaporized=""/>
    <tripinfo id="westEastBottom0.2" depart="28.00" departLane="westJunction_0" departPos="5.10" departSpeed="7.84" departDelay="0.87" arrival="159.00" arrivalLane="junctionEast_0" arrivalPos="492.80" arrivalSpeed="8.07" duration="131.00" routeLength="994.90" waitingTime="0.00" waitingCount="0" stopTime="0.00" timeLoss="10.67" rerouteNo="0" devices="tripinfo_westEastBottom0.2 ssm_westEastBottom0.2" vType="carCustom" speedFactor="1.06" vaporized=""/>
    <tripinfo id="westEastTop.5" depart="28.00" departLane="westJunction_1" departPos="5.10" departSpeed="7.35" departDelay="0.18" arrival="162.00" arrivalLane="junctionEast_1" arrivalPos="492.80" arrivalSpeed="7.35" duration="134.00" routeLength="994.90" waitingTime="0.00" waitingCount="0" stopTime="0.00" timeLoss="14.31" rerouteNo="0" devices="tripinfo_westEastTop.5 ssm_westEastTop.5" vType="carCustom" speedFactor="1.05" vaporized=""/>
    <tripinfo id="westEastBottom0.3" depart="30.00" departLane="westJunction_0" departPos="5.10" departSpeed="8.16" departDelay="1.50" arrival="162.00" arrivalLane="junctionEast_0" arrivalPos="492.80" arrivalSpeed="7.13" duration="132.00" routeLength="994.90" waitingTime="0.00" waitingCount="0" stopTime="0.00" timeLoss="11.75" rerouteNo="0" devices="tripinfo_westEastBottom0.3 ssm_westEastBottom0.3" vType="carCustom" speedFactor="0.97" vaporized=""/>
    <tripinfo id="southNorth.2" depart="28.00" departLane="southJunction_1" departPos="5.10" departSpeed="7.36" departDelay="0.03" arrival="165.00" arrivalLane="junctionNorth_0" arrivalPos="492.80" arrivalSpeed="7.24" duration="137.00" routeLength="995.01" waitingTime="0.00" waitingCount="0" stopTime="0.00" timeLoss="16.84" rerouteNo="0" devices="tripinfo_southNorth.2 ssm_southNorth.2" vType="carCustom" speedFactor="0.96" vaporized=""/>
    <tripinfo id="westEastBottom0.4" depart="33.00" departLane="westJunction_0" departPos="5.10" departSpeed="7.38" departDelay="3.60" arrival="169.00" arrivalLane="junctionEast_0" arrivalPos="492.80" arrivalSpeed="7.04" duration="136.00" routeLength="994.90" waitingTime="1.00" waitingCount="1" stopTime="0.00" timeLoss="16.04" rerouteNo="0" devices="tripinfo_westEastBottom0.4 ssm_westEastBottom0.4" vType="carCustom" speedFactor="0.85" vaporized=""/>
    <tripinfo id="southNorth.3" depart="37.00" departLane="southJunction_1" departPos="5.10" departSpeed="7.23" departDelay="0.60" arrival="173.00" arrivalLane="junctionNorth_0" arrivalPos="492.80" arrivalSpeed="8.11" duration="136.00" routeLength="995.01" waitingTime="4.00" waitingCount="1" stopTime="0.00" timeLoss="16.51" rerouteNo="0" devices="tripinfo_southNorth.3 ssm_southNorth.3" vType="carCustom" speedFactor="0.93" vaporized=""/>
    <tripinfo id="westEastTop.6" depart="43.00" departLane="westJunction_1" departPos="5.10" departSpeed="8.29" departDelay="0.99" arrival="179.00" arrivalLane="junctionEast_0" arrivalPos="492.80" arrivalSpeed="7.31" duration="136.00" routeLength="994.90" waitingTime="3.00" waitingCount="1" stopTime="0.00" timeLoss="15.82" rerouteNo="0" devices="tripinfo_westEastTop.6 ssm_westEastTop.6" vType="carCustom" speedFactor="0.81" vaporized=""/>
    <tripinfo id="westEastTop.7" depart="45.00" departLane="westJunction_1" departPos="5.10" departSpeed="7.63" departDelay="2.08" arrival="182.00" arrivalLane="junctionEast_0" arrivalPos="492.80" arrivalSpeed="7.74" duration="137.00" routeLength="994.90" waitingTime="1.00" waitingCount="1" stopTime="0.00" timeLoss="17.15" rerouteNo="0" devices="tripinfo_westEastTop.7 ssm_westEastTop.7" vType="carCustom" speedFactor="0.98" vaporized=""/>
    <tripinfo id="southEast.2" depart="49.00" departLane="southJunction_0" departPos="5.10" departSpeed="7.93" departDelay="0.50" arrival="184.00" arrivalLane="junctionEast_1" arrivalPos="492.80" arrivalSpeed="8.19" duration="135.00" routeLength="989.53" waitingTime="3.00" waitingCount="1" stopTime="0.00" timeLoss="15.26" rerouteNo="0" devices="tripinfo_southEast.2 ssm_southEast.2" vType="carCustom" speedFactor="0.92" vaporized=""/>
    <tripinfo id="westEastBottom0.5" depart="56.00" departLane="westJunction_0" departPos="5.10" departSpeed="7.00" departDelay="0.87" arrival="189.00" arrivalLane="junctionEast_0" arrivalPos="492.80" arrivalSpeed="7.58" duration="133.00" routeLength="994.90" waitingTime="0.00" waitingCount="0" stopTime="0.00" timeLoss="12.88" rerouteNo="0" devices="tripinfo_westEastBottom0.5 ssm_westEastBottom0.5" vType="carCustom" speedFactor="1.15" vaporized=""/>
    <tripinfo id="westEastTop.8" depart="51.00" departLane="westJunction_1" departPos="5.10" departSpeed="7.40" departDelay="0.09" arrival="190.00" arrivalLane="junctionEast_1" arrivalPos="492.80" arrivalSpeed="8.11" duration="139.00" routeLength="994.90" waitingTime="1.00" waitingCount="1" stopTime="0.00" timeLoss="18.85" rerouteNo="0" devices="tripinfo_westEastTop.8 ssm_westEastTop.8" vType="carCustom" speedFactor="1.04" vaporized=""/>
    <tripinfo id="westEastBottom0.6" depart="62.00" departLane="westJunction_0" departPos="5.10" departSpeed="7.47" departDelay="0.61" arrival="192.00" arrivalLane="junctionEast_0" arrivalPos="492.80" arrivalSpeed="7.40" duration="130.00" routeLength="994.90" waitingTime="0.00" waitingCount="0" stopTime="0.00" timeLoss="10.18" rerouteNo="0" devices="tripinfo_westEastBottom0.6 ssm_westEastBottom0.6" vType="carCustom" speedFactor="0.96" vaporized=""/>
    <tripinfo id="westEastTop.9" depart="54.00" departLane="westJunction_1" departPos="5.10" departSpeed="8.12" departDelay="0.51" arrival="193.00" arrivalLane="junctionEast_0" arrivalPos="492.80" arrivalSpeed="8.29" duration="139.00" routeLength="994.90" waitingTime="1.00" waitingCount="1" stopTime="0.00" timeLoss="18.72" rerouteNo="0" devices="tripinfo_westEastTop.9 ssm_westEastTop.9" vType="carCustom" speedFactor="0.93" vaporized=""/>
    <tripinfo id="southNorth.4" depart="64.00" departLane="southJunction_1" departPos="5.10" departSpeed="7.74" departDelay="0.26" arrival="193.00" arrivalLane="junctionNorth_0" arrivalPos="492.80" arrivalSpeed="7.96" duration="129.00" routeLength="995.01" waitingTime="0.00" waitingCount="0" stopTime="0.00" timeLoss="9.50" rerouteNo="0" devices="tripinfo_southNorth.4 ssm_southNorth.4" vType="carCustom" speedFactor="0.96" vaporized=""/>
    <tripinfo id="southEast.3" depart="64.00" departLane="southJunction_0" departPos="5.10" departSpeed="8.00" departDelay="0.09" arrival="195.00" arrivalLane="junctionEast_0" arrivalPos="492.80" arrivalSpeed="8.15" duration="131.00" routeLength="989.53" waitingTime="0.00" waitingCount="0" stopTime="0.00" timeLoss="11.39" rerouteNo="0" devices="tripinfo_southEast.3 ssm_southEast.3" vType="carCustom" speedFactor="0.84" vaporized=""/>
    <tripinfo id="westEastTop.10" depart="59.00" departLane="westJunction_1" departPos="5.10" departSpeed="7.40" departDelay="0.53" arrival="199.00" arrivalLane="junctionEast_0" arrivalPos="492.80" arrivalSpeed="7.19" duration="140.00" routeLength="994.90" waitingTime="2.00" waitingCount="1" stopTime="0.00" timeLoss="20.18" rerouteNo="0" devices="tripinfo_westEastTop.10 ssm_westEastTop.10" vType="carCustom" speedFactor="1.05" vaporized=""/>
    <tripinfo id="westEastTop.11" depart="64.00" departLane="westJunction_1" departPos="5.10" departSpeed="7.19" departDelay="0.67" arrival="202.00" arrivalLane="junctionEast_0" arrivalPos="492.80" arrivalSpeed="7.78" duration="138.00" routeLength="994.90" waitingTime="0.00" waitingCount="0" stopTime="0.00" timeLoss="18.48" rerouteNo="0" devices="tripinfo_westEastTop.11 ssm_westEastTop.11" vType="carCustom" speedFactor="0.88" vaporized=""/>
    <tripinfo id="southEast.4" depart="67.00" departLane="southJunction_0" departPos="5.10" departSpeed="7.55" departDelay="1.79" arrival="206.00" arrivalLane="junctionEast_0" arrivalPos="492.80" arrivalSpeed="8.17" duration="139.00" routeLength="989.53" waitingTime="2.00" waitingCount="1" stopTime="0.00" timeLoss="18.86" rerouteNo="0" devices="tripinfo_southEast.4 ssm_southEast.4" vType="carCustom" speedFactor="0.85" vaporized=""/>
    <tripinfo id="westEastTop.12" depart="66.00" departLane="westJunction_1" departPos="5.10" departSpeed="8.11" departDelay="1.06" arrival="209.00" arrivalLane="junctionEast_1" arrivalPos="492.80" arrivalSpeed="7.71" duration="143.00" routeLength="994.90" waitingTime="1.00" waitingCount="1" stopTime="0.00" timeLoss="23.24" rerouteNo="0" devices="tripinfo_westEastTop.12 ssm_westEastTop.12" vType="carCustom" speedFactor="1.19" vaporized=""/>
    <tripinfo id="westEastBottom0.7" depart="80.00" departLane="westJunction_0" departPos="5.10" departSpeed="7.08" departDelay="0.65" arrival="210.00" arrivalLane="junctionEast_0" arrivalPos="492.80" arrivalSpeed="7.32" duration="130.00" routeLength="994.90" waitingTime="0.00" waitingCount="0" stopTime="0.00" timeLoss="10.14" rerouteNo="0" devices="tripinfo_westEastBottom0.7 ssm_westEastBottom0.7" vType="carCustom" speedFactor="0.91" vaporized=""/>
    <tripinfo id="westEastTop.13" depart="74.00" departLane="westJunction_1" departPos="5.10" departSpeed="6.94" departDelay="0.91" arrival="212.00" arrivalLane="junctionEast_0" arrivalPos="492.80" arrivalSpeed="7.54" duration="138.00" routeLength="994.90" waitingTime="1.00" waitingCount="1" stopTime="0.00" timeLoss="18.38" rerouteNo="0" devices="tripinfo_westEastTop.13 ssm_westEastTop.13" vType="carCustom" speedFactor="1.03" vaporized=""/>
    <tripinfo id="westEastBottom0.14" depart="147.00" departLane="westJunction_0" departPos="5.10" departSpeed="7.90" departDelay="0.09" arrival="212.00" arrivalLane="junctionEast_0" arrivalPos="492.80" arrivalSpeed="8.08" duration="65.00" routeLength="994.90" waitingTime="0.00" waitingCount="0" stopTime="0.00" timeLoss="4.67" rerouteNo="0" devices="tripinfo_westEastBottom0.14 ssm_westEastBottom0.14" vType="carCustom" speedFactor="1.23" vaporized="teleport"/>
    <tripinfo id="southNorth.5" depart="78.00" departLane="southJunction_1" departPos="5.10" departSpeed="8.16" departDelay="0.33" arrival="214.00" arrivalLane="junctionNorth_0" arrivalPos="492.80" arrivalSpeed="7.22" duration="136.00" routeLength="995.01" waitingTime="2.00" waitingCount="1" stopTime="0.00" timeLoss="16.25" rerouteNo="0" devices="tripinfo_southNorth.5 ssm_southNorth.5" vType="carCustom" speedFactor="1.13" vaporized=""/>
    <tripinfo id="southEast.5" depart="86.00" departLane="southJunction_0" departPos="5.10" departSpeed="7.87" departDelay="0.31" arrival="216.00" arrivalLane="junctionEast_0" arrivalPos="492.80" arrivalSpeed="7.70" duration="130.00" routeLength="989.53" waitingTime="0.00" waitingCount="0" stopTime="0.00" timeLoss="10.26" rerouteNo="0" devices="tripinfo_southEast.5 ssm_southEast.5" vType="carCustom" speedFactor="1.07" vaporized=""/>
    <tripinfo id="southNorth.6" depart="84.00" departLane="southJunction_1" departPos="5.10" departSpeed="7.35" departDelay="0.81" arrival="218.00" arrivalLane="junctionNorth_0" arrivalPos="492.80" arrivalSpeed="7.88" duration="134.00" routeLength="995.01" waitingTime="0.00" waitingCount="0" stopTime="0.00" timeLoss="14.02" rerouteNo="0" devices="tripinfo_southNorth.6 ssm_southNorth.6" vType="carCustom" speedFactor="1.18" vaporized=""/>
    <tripinfo id="westEastTop.14" depart="77.00" departLane="westJunction_1" departPos="5.10" departSpeed="7.19" departDelay="2.81" arrival="219.00" arrivalLane="junctionEast_1" arrivalPos="492.80" arrivalSpeed="8.28" duration="142.00" routeLength="994.90" waitingTime="3.00" waitingCount="1" stopTime="0.00" timeLoss="22.05" rerouteNo="0" devices="tripinfo_westEastTop.14 ssm_westEastTop.14" vType="carCustom" speedFactor="0.96" vaporized=""/>
    <tripinfo id="westEastBottom0.8" depart="85.00" departLane="westJunction_0" departPos="5.10" departSpeed="7.13" departDelay="0.76" arrival="219.00" arrivalLane="junctionEast_0" arrivalPos="492.80" arrivalSpeed="8.29" duration="134.00" routeLength="994.90" waitingTime="0.00" waitingCount="0" stopTime="0.00" timeLoss="14.14" rerouteNo="0" devices="tripinfo_westEastBottom0.8 ssm_westEastBottom0.8" vType="carCustom" speedFactor="1.00" vaporized=""/>
    <tripinfo id="westEastTop.15" depart="82.00" departLane="westJunction_1" departPos="5.10" departSpeed="7.91" departDelay="0.72" arrival="222.00" arrivalLane="junctionEast_0" arrivalPos="492.80" arrivalSpeed="7.77" duration="140.00" routeLength="994.90" waitingTime="0.00" waitingCount="0" stopTime="0.00" timeLoss="20.24" rerouteNo="0" devices="tripinfo_westEastTop.15 ssm_westEastTop.15" vType="carCustom" speedFactor="0.86" vaporized=""/>
    <tripinfo id="southEast.6" depart="95.00" departLane="southJunction_0" departPos="5.10" departSpeed="7.54" departDelay="0.86" arrival="225.00" arrivalLane="junctionEast_0" arrivalPos="492.80" arrivalSpeed="7.54" duration="130.00" routeLength="989.53" waitingTime="0.00" waitingCount="0" stopTime="0.00" timeLoss="10.27" rerouteNo="0" devices="tripinfo_southEast.6 ssm_southEast.6" vType="carCustom" speedFactor="0.90" vaporized=""/>
    <tripinfo id="southNorth.7" depart="96.00" departLane="southJunction_1" departPos="5.10" departSpeed="7.58" departDelay="0.69" arrival="225.00" arrivalLane="junctionNorth_0" arrivalPos="492.80" arrivalSpeed="7.76" duration="129.00" routeLength="995.01" waitingTime="0.00" waitingCount="0" stopTime="0.00" timeLoss="9.47" rerouteNo="0" devices="tripinfo_southNorth.7 ssm_southNorth.7" vType="carCustom" speedFactor="1.03" vaporized=""/>
    <tripinfo id="westEastBottom0.9" depart="95.00" departLane="westJunction_0" departPos="5.10" departSpeed="7.09" departDelay="0.27" arrival="229.00" arrivalLane="junctionEast_0" arrivalPos="492.80" arrivalSpeed="7.51" duration="134.00" routeLength="994.90" waitingTime="1.00" waitingCount="1" stopTime="0.00" timeLoss="14.43" rerouteNo="0" devices="tripinfo_westEastBottom0.9 ssm_westEastBottom0.9" vType="carCustom" speedFactor="0.89" vaporized=""/>
    <tripinfo id="westEastTop.16" depart="85.00" departLane="westJunction_1" departPos="5.10" departSpeed="7.32" departDelay="3.71" arrival="230.00" arrivalLane="junctionEast_1" arrivalPos="492.80" arrivalSpeed="7.14" duration="145.00" routeLength="994.90" waitingTime="1.00" waitingCount="1" stopTime="0.00" timeLoss="24.97" rerouteNo="0" devices="tripinfo_westEastTop.16 ssm_westEastTop.16" vType="carCustom" speedFactor="0.99" vaporized=""/>
    <tripinfo id="westEastBottom0.10" depart="100.00" departLane="westJunction_0" departPos="5.10" departSpeed="7.45" departDelay="0.30" arrival="232.00" arrivalLane="junctionEast_0" arrivalPos="492.80" arrivalSpeed="8.12" duration="132.00" routeLength="994.90" waitingTime="0.00" waitingCount="0" stopTime="0.00" timeLoss="12.19" rerouteNo="0" devices="tripinfo_westEastBottom0.10 ssm_westEastBottom0.10" vType="carCustom" speedFactor="0.90" vaporized=""/>
    <tripinfo id="westEastTop.17" depart="87.00" departLane="westJunction_1" departPos="5.10" departSpeed="7.83" departDelay="1.28" arrival="233.00" arrivalLane="junctionEast_1" arrivalPos="492.80" arrivalSpeed="7.70" duration="146.00" routeLength="994.90" waitingTime="0.00" waitingCount="0" stopTime="0.00" timeLoss="25.66" rerouteNo="0" devices="tripinfo_westEastTop.17 ssm_westEastTop.17" vType="carCustom" speedFactor="0.87" vaporized=""/>
    <tripinfo id="southEast.7" depart="98.00" departLane="southJunction_0" departPos="5.10" departSpeed="8.08" departDelay="0.75" arrival="235.00" arrivalLane="junctionEast_0" arrivalPos="492.80" arrivalSpeed="8.24" duration="137.00" routeLength="989.53" waitingTime="2.00" waitingCount="1" stopTime="0.00" timeLoss="17.66" rerouteNo="0" devices="tripinfo_southEast.7 ssm_southEast.7" vType="carCustom" speedFactor="1.29" vaporized=""/>
    <tripinfo id="southNorth.8" depart="99.00" departLane="southJunction_1" departPos="5.10" departSpeed="8.08" departDelay="1.90" arrival="235.00" arrivalLane="junctionNorth_0" arrivalPos="492.80" arrivalSpeed="8.21" duration="136.00" routeLength="995.01" waitingTime="3.00" waitingCount="1" stopTime="0.00" timeLoss="15.73" rerouteNo="0" devices="tripinfo_southNorth.8 ssm_southNorth.8" vType="carCustom" speedFactor="1.19" vaporized=""/>
    <tripinfo id="southNorth.9" depart="101.00" departLane="southJunction_1" departPos="5.10" departSpeed="7.47" departDelay="1.36" arrival="238.00" arrivalLane="junctionNorth_0" arrivalPos="492.80" arrivalSpeed="7.78" duration="137.00" routeLength="995.01" waitingTime="0.00" waitingCount="0" stopTime="0.00" timeLoss="17.02" rerouteNo="0" devices="tripinfo_southNorth.9 ssm_southNorth.9" vType="carCustom" speedFactor="1.06" vaporized=""/>
    <tripinfo id="westEastBottom0.11" depart="107.00" departLane="westJunction_0" departPos="5.10" departSpeed="7.64" departDelay="0.94" arrival="238.00" arrivalLane="junctionEast_0" arrivalPos="492.80" arrivalSpeed="7.14" duration="131.00" routeLength="994.90" waitingTime="0.00" waitingCount="0" stopTime="0.00" timeLoss="11.18" rerouteNo="0" devices="tripinfo_westEastBottom0.11 ssm_westEastBottom0.11" vType="carCustom" speedFactor="1.07" vaporized=""/>
    <tripinfo id="westEastTop.18" depart="91.00" departLane="westJunction_1" departPos="5.10" departSpeed="7.68" departDelay="0.48" arrival="239.00" arrivalLane="junctionEast_1" arrivalPos="492.80" arrivalSpeed="7.79" duration="148.00" routeLength="994.90" waitingTime="1.00" waitingCount="1" stopTime="0.00" timeLoss="28.38" rerouteNo="0" devices="tripinfo_westEastTop.18 ssm_westEastTop.18" vType="carCustom" speedFactor="1.21" vaporized=""/>
    <tripinfo id="southEast.8" depart="111.00" departLane="southJunction_0" departPos="5.10" departSpeed="7.94" departDelay="0.84" arrival="241.00" arrivalLane="junctionEast_0" arrivalPos="492.80" arrivalSpeed="7.39" duration="130.00" routeLength="989.53" waitingTime="0.00" waitingCount="0" stopTime="0.00" timeLoss="10.83" rerouteNo="0" devices="tripinfo_southEast.8 ssm_southEast.8" vType="carCustom" speedFactor="1.00" vaporized=""/>
    <tripinfo id="southNorth.10" depart="104.00" departLane="southJunction_1" departPos="5.10" departSpeed="7.49" departDelay="4.33" arrival="244.00" arrivalLane="junctionNorth_0" arrivalPos="492.80" arrivalSpeed="7.24" duration="140.00" routeLength="995.01" waitingTime="1.00" waitingCount="1" stopTime="0.00" timeLoss="20.24" rerouteNo="0" devices="tripinfo_southNorth.10 ssm_southNorth.10" vType="carCustom" speedFactor="1.13" vaporized=""/>
    <tripinfo id="southNorth.11" depart="107.00" departLane="southJunction_1" departPos="5.10" departSpeed="6.98" departDelay="4.89" arrival="247.00" arrivalLane="junctionNorth_0" arrivalPos="492.80" arrivalSpeed="7.57" duration="140.00" routeLength="995.01" waitingTime="0.00" waitingCount="0" stopTime="0.00" timeLoss="20.13" rerouteNo="0" devices="tripinfo_southNorth.11 ssm_southNorth.11" vType="carCustom" speedFactor="1.09" vaporized=""/>
    <tripinfo id="westEastBottom0.12" depart="120.00" departLane="westJunction_0" departPos="5.10" departSpeed="8.15" departDelay="0.74" arrival="249.00" arrivalLane="junctionEast_0" arrivalPos="492.80" arrivalSpeed="7.38" duration="129.00" routeLength="994.90" waitingTime="0.00" waitingCount="0" stopTime="0.00" timeLoss="9.22" rerouteNo="0" devices="tripinfo_westEastBottom0.12 ssm_westEastBottom0.12" vType="carCustom" speedFactor="1.05" vaporized=""/>
    <tripinfo id="westEastTop.19" depart="94.00" departLane="westJunction_1" departPos="5.10" departSpeed="7.85" departDelay="3.17" arrival="250.00" arrivalLane="junctionEast_0" arrivalPos="492.80" arrivalSpeed="7.51" duration="156.00" routeLength="994.90" waitingTime="5.00" waitingCount="1" stopTime="0.00" timeLoss="35.73" rerouteNo="0" devices="tripinfo_westEastTop.19 ssm_westEastTop.19" vType="carCustom" speedFactor="1.01" vaporized=""/>
    <tripinfo id="westEastTop.20" depart="99.00" departLane="westJunction_1" departPos="5.10" departSpeed="7.93" departDelay="0.07" arrival="252.00" arrivalLane="junctionEast_0" arrivalPos="492.80" arrivalSpeed="8.08" duration="153.00" routeLength="994.90" waitingTime="4.00" waitingCount="1" stopTime="0.00" timeLoss="33.47" rerouteNo="0" devices="tripinfo_westEastTop.20 ssm_westEastTop.20" vType="carCustom" speedFactor="0.87" vaporized=""/>
    <tripinfo id="southNorth.12" depart="119.00" departLane="southJunction_1" departPos="5.10" departSpeed="7.51" departDelay="0.87" arrival="254.00" arrivalLane="junctionNorth_0" arrivalPos="492.80" arrivalSpeed="7.69" duration="135.00" routeLength="995.01" waitingTime="0.00" waitingCount="0" stopTime="0.00" timeLoss="15.24" rerouteNo="0" devices="tripinfo_southNorth.12 ssm_southNorth.12" vType="carCustom" speedFactor="0.97" vaporized=""/>
    <tripinfo id="southEast.9" depart="125.00" departLane="southJunction_0" departPos="5.10" departSpeed="7.17" departDelay="0.71" arrival="255.00" arrivalLane="junctionEast_0" arrivalPos="492.80" arrivalSpeed="8.31" duration="130.00" routeLength="989.53" waitingTime="0.00" waitingCount="0" stopTime="0.00" timeLoss="10.68" rerouteNo="0" devices="tripinfo_southEast.9 ssm_southEast.9" vType="carCustom" speedFactor="0.94" vaporized=""/>
    <tripinfo id="westEastTop.21" depart="101.00" departLane="westJunction_1" departPos="5.10" departSpeed="7.89" departDelay="0.71" arrival="259.00" arrivalLane="junctionEast_1" arrivalPos="492.80" arrivalSpeed="8.24" duration="158.00" routeLength="994.90" waitingTime="6.00" waitingCount="2" stopTime="0.00" timeLoss="37.93" rerouteNo="0" devices="tripinfo_westEastTop.21 ssm_westEastTop.21" vType="carCustom" speedFactor="0.97" vaporized=""/>
    <tripinfo id="southEast.10" depart="128.00" departLane="southJunction_0" departPos="5.10" departSpeed="8.23" departDelay="3.37" arrival="259.00" arrivalLane="junctionEast_0" arrivalPos="492.80" arrivalSpeed="7.94" duration="131.00" routeLength="989.53" waitingTime="0.00" waitingCount="0" stopTime="0.00" timeLoss="11.05" rerouteNo="0" devices="tripinfo_southEast.10 ssm_southEast.10" vType="carCustom" speedFactor="0.88" vaporized=""/>
    <tripinfo id="westEastTop.22" depart="104.00" departLane="westJunction_1" departPos="5.10" departSpeed="7.61" departDelay="1.22" arrival="262.00" arrivalLane="junctionEast_0" arrivalPos="492.80" arrivalSpeed="7.52" duration="158.00" routeLength="994.90" waitingTime="1.00" waitingCount="1" stopTime="0.00" timeLoss="38.46" rerouteNo="0" devices="tripinfo_westEastTop.22 ssm_westEastTop.22" vType="carCustom" speedFactor="0.89" vaporized=""/>
    <tripinfo id="southEast.11" depart="133.00" departLane="southJunction_0" departPos="5.10" departSpeed="7.03" departDelay="0.92" arrival="265.00" arrivalLane="junctionEast_0" arrivalPos="492.80" arrivalSpeed="8.00" duration="132.00" routeLength="989.53" waitingTime="0.00" waitingCount="0" stopTime="0.00" timeLoss="12.28" rerouteNo="0" devices="tripinfo_southEast.11 ssm_southEast.11" vType="carCustom" speedFactor="0.74" vaporized=""/>
    <tripinfo id="southNorth.13" depart="136.00" departLane="southJunction_1" departPos="5.10" departSpeed="8.19" departDelay="0.42" arrival="266.00" arrivalLane="junctionNorth_0" arrivalPos="492.80" arrivalSpeed="7.34" duration="130.00" routeLength="995.01" waitingTime="0.00" waitingCount="0" stopTime="0.00" timeLoss="9.94" rerouteNo="0" devices="tripinfo_southNorth.13 ssm_southNorth.13" vType="carCustom" speedFactor="1.02" vaporized=""/>