<?xml version="1.0" encoding="UTF-8"?>

<!-- generated on 2025-04-29 05:38:16 by Eclipse SUMO sumo Version 1.20.0
<configuration xmlns:xsi="http://www.w3.org/2001/XMLSchema-instance" xsi:noNamespaceSchemaLocation="http://sumo.dlr.de/xsd/sumoConfiguration.xsd">

    <input>
        <net-file value="nets/2lane_unprotected_right/2lane_unprotected_right.net.xml"/>
        <route-files value="nets/2lane_unprotected_right/2lane_unprotected_right.rou.xml"/>
    </input>

    <output>
        <tripinfo-output value="traces/transs50f0.5_s50_f1_random/0074_tripinfo.xml"/>
        <collision-output value="traces/transs50f0.5_s50_f1_random/0074_collisions.xml"/>
        <statistic-output value="traces/transs50f0.5_s50_f1_random/0074_statistics.xml"/>
    </output>

    <processing>
        <collision.action value="teleport"/>
        <collision.check-junctions value="true"/>
        <time-to-teleport value="-1"/>
        <waiting-time-memory value="1000"/>
        <max-depart-delay value="-1"/>
        <default.speeddev value="0.1"/>
    </processing>

    <report>
        <no-warnings value="true"/>
    </report>

    <ssm_device>
        <device.ssm.probability value="1.0"/>
        <device.ssm.measures value="BR"/>
        <device.ssm.file value="/Users/finn/Code/CausalKnowledgeTransfer-4-SafeRL/traces/transs50f0.5_s50_f1_random/0074_ssm.xml"/>
    </ssm_device>

    <traci_server>
        <remote-port value="63320"/>
    </traci_server>

    <random_number>
        <random value="true"/>
    </random_number>

</configuration>
-->

<tripinfos xmlns:xsi="http://www.w3.org/2001/XMLSchema-instance" xsi:noNamespaceSchemaLocation="http://sumo.dlr.de/xsd/tripinfo_file.xsd">
    <tripinfo id="southEast.0" depart="6.00" departLane="southJunction_0" departPos="5.10" departSpeed="13.89" departDelay="0.10" arrival="86.00" arrivalLane="junctionEast_0" arrivalPos="492.80" arrivalSpeed="12.93" duration="80.00" routeLength="989.53" waitingTime="0.00" waitingCount="0" stopTime="0.00" timeLoss="7.08" rerouteNo="0" devices="tripinfo_southEast.0 ssm_southEast.0" vType="carCustom" speedFactor="1.03" vaporized=""/>
    <tripinfo id="westEastTop.0" depart="14.00" departLane="westJunction_1" departPos="5.10" departSpeed="13.89" departDelay="0.71" arrival="94.00" arrivalLane="junctionEast_0" arrivalPos="492.80" arrivalSpeed="13.06" duration="80.00" routeLength="994.90" waitingTime="0.00" waitingCount="0" stopTime="0.00" timeLoss="7.74" rerouteNo="0" devices="tripinfo_westEastTop.0 ssm_westEastTop.0" vType="carCustom" speedFactor="1.01" vaporized=""/>
    <tripinfo id="westEastBottom0.1" depart="11.00" departLane="westJunction_0" departPos="5.10" departSpeed="13.57" departDelay="2.62" arrival="96.00" arrivalLane="junctionEast_0" arrivalPos="492.80" arrivalSpeed="13.20" duration="85.00" routeLength="994.90" waitingTime="0.00" waitingCount="0" stopTime="0.00" timeLoss="13.33" rerouteNo="0" devices="tripinfo_westEastBottom0.1 ssm_westEastBottom0.1" vType="carCustom" speedFactor="1.05" vaporized=""/>
    <tripinfo id="westEastBottom0.0" depart="9.00" departLane="westJunction_0" departPos="5.10" departSpeed="13.89" departDelay="0.84" arrival="101.00" arrivalLane="junctionEast_0" arrivalPos="492.80" arrivalSpeed="12.85" duration="92.00" routeLength="994.90" waitingTime="5.00" waitingCount="1" stopTime="0.00" timeLoss="20.01" rerouteNo="0" devices="tripinfo_westEastBottom0.0 ssm_westEastBottom0.0" vType="carCustom" speedFactor="1.00" vaporized=""/>
    <tripinfo id="southNorth.0" depart="15.00" departLane="southJunction_1" departPos="5.10" departSpeed="11.91" departDelay="0.94" arrival="101.00" arrivalLane="junctionNorth_0" arrivalPos="492.80" arrivalSpeed="12.71" duration="86.00" routeLength="995.01" waitingTime="0.00" waitingCount="0" stopTime="0.00" timeLoss="14.08" rerouteNo="0" devices="tripinfo_southNorth.0 ssm_southNorth.0" vType="carCustom" speedFactor="1.12" vaporized=""/>
    <tripinfo id="southEast.2" depart="12.00" departLane="southJunction_0" departPos="5.10" departSpeed="9.27" departDelay="0.31" arrival="104.00" arrivalLane="junctionEast_0" arrivalPos="492.80" arrivalSpeed="12.88" duration="92.00" routeLength="989.53" waitingTime="0.00" waitingCount="0" stopTime="0.00" timeLoss="20.16" rerouteNo="0" devices="tripinfo_southEast.2 ssm_southEast.2" vType="carCustom" speedFactor="1.21" vaporized=""/>
    <tripinfo id="southEast.1" depart="9.00" departLane="southJunction_0" departPos="5.10" departSpeed="13.80" departDelay="0.87" arrival="109.00" arrivalLane="junctionEast_0" arrivalPos="492.80" arrivalSpeed="13.56" duration="100.00" routeLength="989.53" waitingTime="0.00" waitingCount="0" stopTime="0.00" timeLoss="27.22" rerouteNo="0" devices="tripinfo_southEast.1 ssm_southEast.1" vType="carCustom" speedFactor="0.93" vaporized=""/>
    <tripinfo id="southNorth.1" depart="21.00" departLane="southJunction_1" departPos="5.10" departSpeed="9.36" departDelay="0.20" arrival="110.00" arrivalLane="junctionNorth_0" arrivalPos="492.80" arrivalSpeed="13.50" duration="89.00" routeLength="995.01" waitingTime="0.00" waitingCount="0" stopTime="0.00" timeLoss="17.37" rerouteNo="0" devices="tripinfo_southNorth.1 ssm_southNorth.1" vType="carCustom" speedFactor="1.07" vaporized=""/>
    <tripinfo id="westEastBottom0.2" depart="15.00" departLane="westJunction_0" departPos="5.10" departSpeed="7.89" departDelay="0.12" arrival="112.00" arrivalLane="junctionEast_1" arrivalPos="492.80" arrivalSpeed="13.20" duration="97.00" routeLength="994.90" waitingTime="0.00" waitingCount="0" stopTime="0.00" timeLoss="24.70" rerouteNo="0" devices="tripinfo_westEastBottom0.2 ssm_westEastBottom0.2" vType="carCustom" speedFactor="0.81" vaporized=""/>
    <tripinfo id="westEastBottom0.3" depart="20.00" departLane="westJunction_0" departPos="5.10" departSpeed="7.29" departDelay="0.06" arrival="116.00" arrivalLane="junctionEast_0" arrivalPos="492.80" arrivalSpeed="13.12" duration="96.00" routeLength="994.90" waitingTime="0.00" waitingCount="0" stopTime="0.00" timeLoss="24.06" rerouteNo="0" devices="tripinfo_westEastBottom0.3 ssm_westEastBottom0.3" vType="carCustom" speedFactor="0.90" vaporized=""/>
    <tripinfo id="westEastTop.1" depart="16.00" departLane="westJunction_1" departPos="5.10" departSpeed="13.57" departDelay="0.73" arrival="120.00" arrivalLane="junctionEast_0" arrivalPos="492.80" arrivalSpeed="13.73" duration="104.00" routeLength="994.90" waitingTime="4.00" waitingCount="1" stopTime="0.00" timeLoss="31.40" rerouteNo="0" devices="tripinfo_westEastTop.1 ssm_westEastTop.1" vType="carCustom" speedFactor="0.90" vaporized=""/>
    <tripinfo id="southNorth.2" depart="32.00" departLane="southJunction_1" departPos="5.10" departSpeed="9.15" departDelay="0.36" arrival="122.00" arrivalLane="junctionNorth_0" arrivalPos="492.80" arrivalSpeed="13.21" duration="90.00" routeLength="995.01" waitingTime="0.00" waitingCount="0" stopTime="0.00" timeLoss="17.67" rerouteNo="0" devices="tripinfo_southNorth.2 ssm_southNorth.2" vType="carCustom" speedFactor="1.02" vaporized=""/>
    <tripinfo id="southEast.3" depart="22.00" departLane="southJunction_0" departPos="5.10" departSpeed="10.36" departDelay="0.84" arrival="124.00" arrivalLane="junctionEast_0" arrivalPos="492.80" arrivalSpeed="12.66" duration="102.00" routeLength="989.53" waitingTime="0.00" waitingCount="0" stopTime="0.00" timeLoss="29.84" rerouteNo="0" devices="tripinfo_southEast.3 ssm_southEast.3" vType="carCustom" speedFactor="0.95" vaporized=""/>
    <tripinfo id="southEast.4" depart="33.00" departLane="southJunction_0" departPos="5.10" departSpeed="13.08" departDelay="0.36" arrival="127.00" arrivalLane="junctionEast_1" arrivalPos="492.80" arrivalSpeed="13.56" duration="94.00" routeLength="989.53" waitingTime="1.00" waitingCount="1" stopTime="0.00" timeLoss="21.29" rerouteNo="0" devices="tripinfo_southEast.4 ssm_southEast.4" vType="carCustom" speedFactor="0.84" vaporized=""/>
    <tripinfo id="westEastBottom0.4" depart="23.00" departLane="westJunction_0" departPos="5.10" departSpeed="7.04" departDelay="0.09" arrival="131.00" arrivalLane="junctionEast_0" arrivalPos="492.80" arrivalSpeed="12.59" duration="108.00" routeLength="994.90" waitingTime="0.00" waitingCount="0" stopTime="0.00" timeLoss="35.84" rerouteNo="0" devices="tripinfo_westEastBottom0.4 ssm_westEastBottom0.4" vType="carCustom" speedFactor="0.88" vaporized=""/>
    <tripinfo id="southNorth.3" depart="44.00" departLane="southJunction_1" departPos="5.10" departSpeed="11.88" departDelay="0.82" arrival="132.00" arrivalLane="junctionNorth_0" arrivalPos="492.80" arrivalSpeed="12.63" duration="88.00" routeLength="995.01" waitingTime="1.00" waitingCount="1" stopTime="0.00" timeLoss="16.10" rerouteNo="0" devices="tripinfo_southNorth.3 ssm_southNorth.3" vType="carCustom" speedFactor="1.05" vaporized=""/>
    <tripinfo id="westEastBottom0.11" depart="83.00" departLane="westJunction_0" departPos="5.10" departSpeed="9.87" departDelay="0.48" arrival="134.00" arrivalLane="junctionEast_0" arrivalPos="492.80" arrivalSpeed="3.48" duration="51.00" routeLength="994.90" waitingTime="0.00" waitingCount="0" stopTime="0.00" timeLoss="14.75" rerouteNo="0" devices="tripinfo_westEastBottom0.11 ssm_westEastBottom0.11" vType="carCustom" speedFactor="0.94" vaporized="teleport"/>
    <tripinfo id="westEastTop.2" depart="30.00" departLane="westJunction_1" departPos="5.10" departSpeed="10.12" departDelay="0.28" arrival="135.00" arrivalLane="junctionEast_0" arrivalPos="492.80" arrivalSpeed="13.69" duration="105.00" routeLength="994.90" waitingTime="5.00" waitingCount="1" stopTime="0.00" timeLoss="32.79" rerouteNo="0" devices="tripinfo_westEastTop.2 ssm_westEastTop.2" vType="carCustom" speedFactor="1.19" vaporized=""/>
    <tripinfo id="westEastBottom0.6" depart="32.00" departLane="westJunction_0" departPos="5.10" departSpeed="5.94" departDelay="2.97" arrival="139.00" arrivalLane="junctionEast_0" arrivalPos="492.80" arrivalSpeed="13.65" duration="107.00" routeLength="994.90" waitingTime="0.00" waitingCount="0" stopTime="0.00" timeLoss="35.38" rerouteNo="0" devices="tripinfo_westEastBottom0.6 ssm_westEastBottom0.6" vType="carCustom" speedFactor="0.91" vaporized=""/>
    <tripinfo id="southNorth.4" depart="56.00" departLane="southJunction_1" departPos="5.10" departSpeed="13.56" departDelay="0.76" arrival="141.00" arrivalLane="junctionNorth_0" arrivalPos="492.80" arrivalSpeed="13.47" duration="85.00" routeLength="995.01" waitingTime="0.00" waitingCount="0" stopTime="0.00" timeLoss="13.28" rerouteNo="0" devices="tripinfo_southNorth.4 ssm_southNorth.4" vType="carCustom" speedFactor="1.00" vaporized=""/>
    <tripinfo id="westEastBottom0.5" depart="29.00" departLane="westJunction_0" departPos="5.10" departSpeed="5.24" departDelay="0.27" arrival="142.00" arrivalLane="junctionEast_1" arrivalPos="492.80" arrivalSpeed="13.01" duration="113.00" routeLength="994.90" waitingTime="3.00" waitingCount="1" stopTime="0.00" timeLoss="40.64" rerouteNo="0" devices="tripinfo_westEastBottom0.5 ssm_westEastBottom0.5" vType="carCustom" speedFactor="1.12" vaporized=""/>
    <tripinfo id="southEast.5" depart="47.00" departLane="southJunction_0" departPos="5.10" departSpeed="13.27" departDelay="0.70" arrival="145.00" arrivalLane="junctionEast_0" arrivalPos="492.80" arrivalSpeed="12.80" duration="98.00" routeLength="989.53" waitingTime="0.00" waitingCount="0" stopTime="0.00" timeLoss="26.28" rerouteNo="0" devices="tripinfo_southEast.5 ssm_southEast.5" vType="carCustom" speedFactor="1.13" vaporized=""/>
    <tripinfo id="southEast.6" depart="49.00" departLane="southJunction_0" departPos="5.10" departSpeed="12.70" departDelay="0.15" arrival="149.00" arrivalLane="junctionEast_0" arrivalPos="492.80" arrivalSpeed="12.78" duration="100.00" routeLength="989.53" waitingTime="1.00" waitingCount="1" stopTime="0.00" timeLoss="28.09" rerouteNo="0" devices="tripinfo_southEast.6 ssm_southEast.6" vType="carCustom" speedFactor="1.05" vaporized=""/>
    <tripinfo id="southNorth.5" depart="66.00" departLane="southJunction_1" departPos="5.10" departSpeed="13.55" departDelay="0.64" arrival="152.00" arrivalLane="junctionNorth_0" arrivalPos="492.80" arrivalSpeed="13.00" duration="86.00" routeLength="995.01" waitingTime="0.00" waitingCount="0" stopTime="0.00" timeLoss="13.54" rerouteNo="0" devices="tripinfo_southNorth.5 ssm_southNorth.5" vType="carCustom" speedFactor="0.92" vaporized=""/>
    <tripinfo id="westEastBottom0.7" depart="46.00" departLane="westJunction_0" departPos="5.10" departSpeed="8.30" departDelay="0.77" arrival="153.00" arrivalLane="junctionEast_0" arrivalPos="492.80" arrivalSpeed="13.59" duration="107.00" routeLength="994.90" waitingTime="0.00" waitingCount="0" stopTime="0.00" timeLoss="34.63" rerouteNo="0" devices="tripinfo_westEastBottom0.7 ssm_westEastBottom0.7" vType="carCustom" speedFactor="1.12" vaporized=""/>
    <tripinfo id="westEastBottom0.13" depart="93.00" departLane="westJunction_0" departPos="5.10" departSpeed="9.28" departDelay="0.47" arrival="154.00" arrivalLane="junctionEast_0" arrivalPos="492.80" arrivalSpeed="6.71" duration="61.00" routeLength="994.90" waitingTime="3.00" waitingCount="1" stopTime="0.00" timeLoss="24.67" rerouteNo="0" devices="tripinfo_westEastBottom0.13 ssm_westEastBottom0.13" vType="carCustom" speedFactor="0.88" vaporized="teleport"/>
    <tripinfo id="westEastTop.3" depart="47.00" departLane="westJunction_1" departPos="5.10" departSpeed="11.30" departDelay="0.40" arrival="156.00" arrivalLane="junctionEast_0" arrivalPos="492.80" arrivalSpeed="12.86" duration="109.00" routeLength="994.90" waitingTime="4.00" waitingCount="1" stopTime="0.00" timeLoss="37.22" rerouteNo="0" devices="tripinfo_westEastTop.3 ssm_westEastTop.3" vType="carCustom" speedFactor="1.03" vaporized=""/>
    <tripinfo id="westEastBottom0.8" depart="49.00" departLane="westJunction_0" departPos="5.10" departSpeed="11.90" departDelay="0.38" arrival="159.00" arrivalLane="junctionEast_0" arrivalPos="492.80" arrivalSpeed="13.61" duration="110.00" routeLength="994.90" waitingTime="0.00" waitingCount="0" stopTime="0.00" timeLoss="37.68" rerouteNo="0" devices="tripinfo_westEastBottom0.8 ssm_westEastBottom0.8" vType="carCustom" speedFactor="1.09" vaporized=""/>
    <tripinfo id="southNorth.6" depart="73.00" departLane="southJunction_1" departPos="5.10" departSpeed="13.73" departDelay="0.22" arrival="162.00" arrivalLane="junctionNorth_0" arrivalPos="492.80" arrivalSpeed="13.04" duration="89.00" routeLength="995.01" waitingTime="1.00" waitingCount="1" stopTime="0.00" timeLoss="16.58" rerouteNo="0" devices="tripinfo_southNorth.6 ssm_southNorth.6" vType="carCustom" speedFactor="0.90" vaporized=""/>
    <tripinfo id="westEastTop.4" depart="49.00" departLane="westJunction_1" departPos="5.10" departSpeed="13.13" departDelay="1.17" arrival="163.00" arrivalLane="junctionEast_0" arrivalPos="492.80" arrivalSpeed="13.69" duration="114.00" routeLength="994.90" waitingTime="0.00" waitingCount="0" stopTime="0.00" timeLoss="42.37" rerouteNo="0" devices="tripinfo_westEastTop.4 ssm_westEastTop.4" vType="carCustom" speedFactor="0.93" vaporized=""/>
    <tripinfo id="southEast.7" depart="60.00" departLane="southJunction_0" departPos="5.10" departSpeed="10.15" departDelay="0.39" arrival="167.00" arrivalLane="junctionEast_0" arrivalPos="492.80" arrivalSpeed="13.54" duration="107.00" routeLength="989.53" waitingTime="1.00" waitingCount="1" stopTime="0.00" timeLoss="34.75" rerouteNo="0" devices="tripinfo_southEast.7 ssm_southEast.7" vType="carCustom" speedFactor="0.87" vaporized=""/>
    <tripinfo id="westEastTop.5" depart="64.00" departLane="westJunction_1" departPos="5.10" departSpeed="10.50" departDelay="0.96" arrival="170.00" arrivalLane="junctionEast_1" arrivalPos="492.80" arrivalSpeed="13.02" duration="106.00" routeLength="994.90" waitingTime="0.00" waitingCount="0" stopTime="0.00" timeLoss="34.00" rerouteNo="0" devices="tripinfo_westEastTop.5 ssm_westEastTop.5" vType="carCustom" speedFactor="1.12" vaporized=""/>
    <tripinfo id="westEastBottom0.9" depart="51.00" departLane="westJunction_0" departPos="5.10" departSpeed="8.71" departDelay="0.59" arrival="173.00" arrivalLane="junctionEast_0" arrivalPos="492.80" arrivalSpeed="13.25" duration="122.00" routeLength="994.90" waitingTime="2.00" waitingCount="1" stopTime="0.00" timeLoss="49.62" rerouteNo="0" devices="tripinfo_westEastBottom0.9 ssm_westEastBottom0.9" vType="carCustom" speedFactor="1.04" vaporized=""/>
    <tripinfo id="southNorth.7" depart="79.00" departLane="southJunction_1" departPos="5.10" departSpeed="11.68" departDelay="0.33" arrival="176.00" arrivalLane="junctionNorth_0" arrivalPos="492.80" arrivalSpeed="13.73" duration="97.00" routeLength="995.01" waitingTime="7.00" waitingCount="1" stopTime="0.00" timeLoss="25.10" rerouteNo="0" devices="tripinfo_southNorth.7 ssm_southNorth.7" vType="carCustom" speedFactor="0.85" vaporized=""/>
    <tripinfo id="westEastTop.6" depart="67.00" departLane="westJunction_1" departPos="5.10" departSpeed="13.01" departDelay="0.66" arrival="177.00" arrivalLane="junctionEast_0" arrivalPos="492.80" arrivalSpeed="12.99" duration="110.00" routeLength="994.90" waitingTime="3.00" waitingCount="1" stopTime="0.00" timeLoss="38.22" rerouteNo="0" devices="tripinfo_westEastTop.6 ssm_westEastTop.6" vType="carCustom" speedFactor="1.00" vaporized=""/>
    <tripinfo id="southEast.8" depart="64.00" departLane="southJunction_0" departPos="5.10" departSpeed="12.03" departDelay="0.85" arrival="181.00" arrivalLane="junctionEast_0" arrivalPos="492.80" arrivalSpeed="13.84" duration="117.00" routeLength="989.53" waitingTime="2.00" waitingCount="1" stopTime="0.00" timeLoss="45.00" rerouteNo="0" devices="tripinfo_southEast.8 ssm_southEast.8" vType="carCustom" speedFactor="0.99" vaporized=""/>
    <tripinfo id="westEastTop.7" depart="82.00" departLane="westJunction_1" departPos="5.10" departSpeed="11.71" departDelay="0.79" arrival="184.00" arrivalLane="junctionEast_1" arrivalPos="492.80" arrivalSpeed="13.78" duration="102.00" routeLength="994.90" waitingTime="0.00" waitingCount="0" stopTime="0.00" timeLoss="29.54" rerouteNo="0" devices="tripinfo_westEastTop.7 ssm_westEastTop.7" vType="carCustom" speedFactor="0.82" vaporized=""/>
    <tripinfo id="westEastBottom0.10" depart="66.00" departLane="westJunction_0" departPos="5.10" departSpeed="8.20" departDelay="0.56" arrival="187.00" arrivalLane="junctionEast_0" arrivalPos="492.80" arrivalSpeed="13.13" duration="121.00" routeLength="994.90" waitingTime="2.00" waitingCount="1" stopTime="0.00" timeLoss="48.76" rerouteNo="0" devices="tripinfo_westEastBottom0.10 ssm_westEastBottom0.10" vType="carCustom" speedFactor="1.04" vaporized=""/>
    <tripinfo id="southNorth.8" depart="81.00" departLane="southJunction_1" departPos="5.10" departSpeed="10.26" departDelay="1.89" arrival="187.00" arrivalLane="junctionNorth_0" arrivalPos="492.80" arrivalSpeed="13.59" duration="106.00" routeLength="995.01" waitingTime="4.00" waitingCount="1" stopTime="0.00" timeLoss="33.51" rerouteNo="0" devices="tripinfo_southNorth.8 ssm_southNorth.8" vType="carCustom" speedFactor="1.20" vaporized=""/>
    <tripinfo id="westEastTop.8" depart="85.00" departLane="westJunction_1" departPos="5.10" departSpeed="12.90" departDelay="0.55" arrival="191.00" arrivalLane="junctionEast_0" arrivalPos="492.80" arrivalSpeed="13.31" duration="106.00" routeLength="994.90" waitingTime="2.00" waitingCount="1" stopTime="0.00" timeLoss="33.66" rerouteNo="0" devices="tripinfo_westEastTop.8 ssm_westEastTop.8" vType="carCustom" speedFactor="1.07" vaporized=""/>
    <tripinfo id="southEast.9" depart="68.00" departLane="southJunction_0" departPos="5.10" departSpeed="9.23" departDelay="0.77" arrival="194.00" arrivalLane="junctionEast_0" arrivalPos="492.80" arrivalSpeed="13.43" duration="126.00" routeLength="989.53" waitingTime="3.00" waitingCount="1" stopTime="0.00" timeLoss="53.75" rerouteNo="0" devices="tripinfo_southEast.9 ssm_southEast.9" vType="carCustom" speedFactor="1.01" vaporized=""/>
    <tripinfo id="southNorth.9" depart="99.00" departLane="southJunction_1" departPos="5.10" departSpeed="8.47" departDelay="1.00" arrival="197.00" arrivalLane="junctionNorth_0" arrivalPos="492.80" arrivalSpeed="13.65" duration="98.00" routeLength="995.01" waitingTime="2.00" waitingCount="1" stopTime="0.00" timeLoss="25.87" rerouteNo="0" devices="tripinfo_southNorth.9 ssm_southNorth.9" vType="carCustom" speedFactor="1.08" vaporized=""/>
    <tripinfo id="westEastBottom0.12" depart="86.00" departLane="westJunction_0" departPos="5.10" departSpeed="13.19" departDelay="0.51" arrival="198.00" arrivalLane="junctionEast_0" arrivalPos="492.80" arrivalSpeed="12.74" duration="112.00" routeLength="994.90" waitingTime="2.00" waitingCount="1" stopTime="0.00" timeLoss="39.51" rerouteNo="0" devices="tripinfo_westEastBottom0.12 ssm_westEastBottom0.12" vType="carCustom" speedFactor="0.93" vaporized=""/>
    <tripinfo id="southEast.10" depart="91.00" departLane="southJunction_0" departPos="5.10" departSpeed="10.65" departDelay="0.68" arrival="200.00" arrivalLane="junctionEast_0" arrivalPos="492.80" arrivalSpeed="12.90" duration="109.00" routeLength="989.53" waitingTime="0.00" waitingCount="0" stopTime="0.00" timeLoss="36.45" rerouteNo="0" devices="tripinfo_southEast.10 ssm_southEast.10" vType="carCustom" speedFactor="1.11" vaporized=""/>
    <tripinfo id="westEastTop.9" depart="92.00" departLane="westJunction_1" departPos="5.10" departSpeed="10.01" departDelay="0.17" arrival="204.00" arrivalLane="junctionEast_0" arrivalPos="492.80" arrivalSpeed="13.66" duration="112.00" routeLength="994.90" waitingTime="3.00" waitingCount="1" stopTime="0.00" timeLoss="40.30" rerouteNo="0" devices="tripinfo_westEastTop.9 ssm_westEastTop.9" vType="carCustom" speedFactor="0.97" vaporized=""/>
    <tripinfo id="southNorth.10" depart="102.00" departLane="southJunction_1" departPos="5.10" departSpeed="6.62" departDelay="2.99" arrival="206.00" arrivalLane="junctionNorth_0" arrivalPos="492.80" arrivalSpeed="13.67" duration="104.00" routeLength="995.01" waitingTime="3.00" waitingCount="1" stopTime="0.00" timeLoss="32.32" rerouteNo="0" devices="tripinfo_southNorth.10 ssm_southNorth.10" vType="carCustom" speedFactor="0.92" vaporized=""/>
    <tripinfo id="southEast.12" depart="96.00" departLane="southJunction_0" departPos="5.10" departSpeed="8.64" departDelay="0.13" arrival="207.00" arrivalLane="junctionEast_0" arrivalPos="492.80" arrivalSpeed="13.41" duration="111.00" routeLength="989.53" waitingTime="0.00" waitingCount="0" stopTime="0.00" timeLoss="38.91" rerouteNo="0" devices="tripinfo_southEast.12 ssm_southEast.12" vType="carCustom" speedFactor="0.98" vaporized=""/>
    <tripinfo id="westEastTop.10" depart="95.00" departLane="westJunction_1" departPos="5.10" departSpeed="9.64" departDelay="0.46" arrival="211.00" arrivalLane="junctionEast_0" arrivalPos="492.80" arrivalSpeed="13.63" duration="116.00" routeLength="994.90" waitingTime="4.00" waitingCount="1" stopTime="0.00" timeLoss="44.01" rerouteNo="0" devices="tripinfo_westEastTop.10 ssm_westEastTop.10" vType="carCustom" speedFactor="0.80" vaporized=""/>
    <tripinfo id="southEast.11" depart="93.00" departLane="southJunction_0" departPos="5.10" departSpeed="13.59" departDelay="2.25" arrival="213.00" arrivalLane="junctionEast_0" arrivalPos="492.80" arrivalSpeed="12.60" duration="120.00" routeLength="989.53" waitingTime="0.00" waitingCount="0" stopTime="0.00" timeLoss="47.12" rerouteNo="0" devices="tripinfo_southEast.11 ssm_southEast.11" vType="carCustom" speedFactor="0.91" vaporized=""/>
    <tripinfo id="southNorth.11" depart="123.00" departLane="southJunction_1" departPos="5.10" departSpeed="10.44" departDelay="0.87" arrival="217.00" arrivalLane="junctionNorth_0" arrivalPos="492.80" arrivalSpeed="13.03" duration="94.00" routeLength="995.01" waitingTime="3.00" waitingCount="1" stopTime="0.00" timeLoss="21.88" rerouteNo="0" devices="tripinfo_southNorth.11 ssm_southNorth.11" vType="carCustom" speedFactor="1.28" vaporized=""/>
    <tripinfo id="westEastTop.11" depart="97.00" departLane="westJunction_1" departPos="5.10" departSpeed="6.77" departDelay="0.67" arrival="218.00" arrivalLane="junctionEast_1" arrivalPos="492.80" arrivalSpeed="13.64" duration="121.00" routeLength="994.90" waitingTime="4.00" waitingCount="1" stopTime="0.00" timeLoss="48.91" rerouteNo="0" devices="tripinfo_westEastTop.11 ssm_westEastTop.11" vType="carCustom" speedFactor="0.85" vaporized=""/>
    <tripinfo id="southEast.13" depart="107.00" departLane="southJunction_0" departPos="5.10" departSpeed="11.02" departDelay="0.47" arrival="219.00" arrivalLane="junctionEast_0" arrivalPos="492.80" arrivalSpeed="12.88" duration="112.00" routeLength="989.53" waitingTime="0.00" waitingCount="0" stopTime="0.00" timeLoss="39.64" rerouteNo="0" devices="tripinfo_southEast.13 ssm_southEast.13" vType="carCustom" speedFactor="1.03" vaporized=""/>
    <tripinfo id="westEastTop.12" depart="100.00" departLane="westJunction_1" departPos="5.10" departSpeed="3.75" departDelay="3.21" arrival="225.00" arrivalLane="junctionEast_1" arrivalPos="492.80" arrivalSpeed="13.84" duration="125.00" routeLength="994.90" waitingTime="0.00" waitingCount="0" stopTime="0.00" timeLoss="53.12" rerouteNo="0" devices="tripinfo_westEastTop.12 ssm_westEastTop.12" vType="carCustom" speedFactor="0.69" vaporized=""/>
    <tripinfo id="westEastBottom0.14" depart="103.00" departLane="westJunction_0" departPos="5.10" departSpeed="10.82" departDelay="0.75" arrival="225.00" arrivalLane="junctionEast_0" arrivalPos="492.80" arrivalSpeed="13.15" duration="122.00" routeLength="994.90" waitingTime="4.00" waitingCount="1" stopTime="0.00" timeLoss="49.86" rerouteNo="0" devices="tripinfo_westEastBottom0.14 ssm_westEastBottom0.14" vType="carCustom" speedFactor="1.19" vaporized=""/>
    <tripinfo id="southNorth.12" depart="125.00" departLane="southJunction_1" departPos="5.10" departSpeed="12.83" departDelay="2.22" arrival="227.00" arrivalLane="junctionNorth_0" arrivalPos="492.80" arrivalSpeed="13.29" duration="102.00" routeLength="995.01" waitingTime="4.00" waitingCount="1" stopTime="0.00" timeLoss="29.72" rerouteNo="0" devices="tripinfo_southNorth.12 ssm_southNorth.12" vType="carCustom" speedFactor="1.05" vaporized=""/>
    <tripinfo id="westEastBottom0.21" depart="155.00" departLane="westJunction_0" departPos="5.10" departSpeed="10.10" departDelay="0.89" arrival="228.00" arrivalLane="junctionEast_0" arrivalPos="492.80" arrivalSpeed="4.26" duration="73.00" routeLength="994.90" waitingTime="2.00" waitingCount="1" stopTime="0.00" timeLoss="36.84" rerouteNo="0" devices="tripinfo_westEastBottom0.21 ssm_westEastBottom0.21" vType="carCustom" speedFactor="1.08" vaporized="teleport"/>
    <tripinfo id="westEastBottom0.15" depart="118.00" departLane="westJunction_0" departPos="5.10" departSpeed="10.41" departDelay="0.90" arrival="231.00" arrivalLane="junctionEast_0" arrivalPos="492.80" arrivalSpeed="13.82" duration="113.00" routeLength="994.90" waitingTime="4.00" waitingCount="1" stopTime="0.00" timeLoss="40.80" rerouteNo="0" devices="tripinfo_westEastBottom0.15 ssm_westEastBottom0.15" vType="carCustom" speedFactor="1.14" vaporized=""/>
    <tripinfo id="westEastTop.13" depart="105.00" departLane="westJunction_1" departPos="5.10" departSpeed="3.57" departDelay="7.98" arrival="232.00" arrivalLane="junctionEast_1" arrivalPos="492.80" arrivalSpeed="13.69" duration="127.00" routeLength="994.90" waitingTime="0.00" waitingCount="0" stopTime="0.00" timeLoss="55.23" rerouteNo="0" devices="tripinfo_westEastTop.13 ssm_westEastTop.13" vType="carCustom" speedFactor="1.11" vaporized=""/>
    <tripinfo id="southNorth.13" depart="127.00" departLane="southJunction_1" departPos="5.10" departSpeed="9.43" departDelay="1.81" arrival="237.00" arrivalLane="junctionNorth_0" arrivalPos="492.80" arrivalSpeed="12.95" duration="110.00" routeLength="995.01" waitingTime="4.00" waitingCount="1" stopTime="0.00" timeLoss="37.49" rerouteNo="0" devices="tripinfo_southNorth.13 ssm_southNorth.13" vType="carCustom" speedFactor="0.90" vaporized=""/>
    <tripinfo id="southEast.14" depart="133.00" departLane="southJunction_0" departPos="5.10" departSpeed="8.97" departDelay="0.74" arrival="237.00" arrivalLane="junctionEast_0" arrivalPos="492.80" arrivalSpeed="13.65" duration="104.00" routeLength="989.53" waitingTime="0.00" waitingCount="0" stopTime="0.00" timeLoss="31.72" rerouteNo="0" devices="tripinfo_southEast.14 ssm_southEast.14" vType="carCustom" speedFactor="0.87" vaporized=""/>
    <tripinfo id="westEastTop.14" depart="109.00" departLane="westJunction_1" departPos="5.10" departSpeed="4.05" departDelay="10.02" arrival="239.00" arrivalLane="junctionEast_1" arrivalPos="492.80" arrivalSpeed="13.06" duration="130.00" routeLength="994.90" waitingTime="3.00" waitingCount="1" stopTime="0.00" timeLoss="58.34" rerouteNo="0" devices="tripinfo_westEastTop.14 ssm_westEastTop.14" vType="carCustom" speedFactor="1.12" vaporized=""/>
    <tripinfo id="westEastBottom0.16" depart="123.00" departLane="westJunction_0" departPos="5.10" departSpeed="13.77" departDelay="0.08" arrival="243.00" arrivalLane="junctionEast_0" arrivalPos="492.80" arrivalSpeed="13.19" duration="120.00" routeLength="994.90" waitingTime="4.00" waitingCount="1" stopTime="0.00" timeLoss="48.25" rerouteNo="0" devices="tripinfo_westEastBottom0.16 ssm_westEastBottom0.16" vType="carCustom" speedFactor="1.09" vaporized=""/>
    <tripinfo id="southEast.15" depart="158.00" departLane="southJunction_0" departPos="5.10" departSpeed="12.83" departDelay="0.40" arrival="246.00" arrivalLane="junctionEast_0" arrivalPos="492.80" arrivalSpeed="13.21" duration="88.00" routeLength="989.53" waitingTime="0.00" waitingCount="0" stopTime="0.00" timeLoss="15.88" rerouteNo="0" devices="tripinfo_southEast.15 ssm_southEast.15" vType="carCustom" speedFactor="1.17" vaporized=""/>