<?xml version="1.0" encoding="UTF-8"?>

<!-- generated on 2025-04-29 05:40:22 by Eclipse SUMO sumo Version 1.20.0
<configuration xmlns:xsi="http://www.w3.org/2001/XMLSchema-instance" xsi:noNamespaceSchemaLocation="http://sumo.dlr.de/xsd/sumoConfiguration.xsd">

    <input>
        <net-file value="nets/2lane_unprotected_right/2lane_unprotected_right.net.xml"/>
        <route-files value="nets/2lane_unprotected_right/2lane_unprotected_right.rou.xml"/>
    </input>

    <output>
        <tripinfo-output value="traces/transs50f0.5_s50_f1_random/0075_tripinfo.xml"/>
        <collision-output value="traces/transs50f0.5_s50_f1_random/0075_collisions.xml"/>
        <statistic-output value="traces/transs50f0.5_s50_f1_random/0075_statistics.xml"/>
    </output>

    <processing>
        <collision.action value="teleport"/>
        <collision.check-junctions value="true"/>
        <time-to-teleport value="-1"/>
        <waiting-time-memory value="1000"/>
        <max-depart-delay value="-1"/>
        <default.speeddev value="0.1"/>
    </processing>

    <report>
        <no-warnings value="true"/>
    </report>

    <ssm_device>
        <device.ssm.probability value="1.0"/>
        <device.ssm.measures value="BR"/>
        <device.ssm.file value="/Users/finn/Code/CausalKnowledgeTransfer-4-SafeRL/traces/transs50f0.5_s50_f1_random/0075_ssm.xml"/>
    </ssm_device>

    <traci_server>
        <remote-port value="63332"/>
    </traci_server>

    <random_number>
        <random value="true"/>
    </random_number>

</configuration>
-->

<tripinfos xmlns:xsi="http://www.w3.org/2001/XMLSchema-instance" xsi:noNamespaceSchemaLocation="http://sumo.dlr.de/xsd/tripinfo_file.xsd">
    <tripinfo id="southEast.3" depart="55.00" departLane="southJunction_0" departPos="5.10" departSpeed="7.09" departDelay="0.89" arrival="127.00" arrivalLane="junctionEast_0" arrivalPos="492.80" arrivalSpeed="5.99" duration="72.00" routeLength="989.53" waitingTime="0.00" waitingCount="0" stopTime="0.00" timeLoss="11.48" rerouteNo="0" devices="tripinfo_southEast.3 ssm_southEast.3" vType="carCustom" speedFactor="0.96" vaporized="teleport"/>
    <tripinfo id="westEastTop.0" depart="1.00" departLane="westJunction_1" departPos="5.10" departSpeed="8.33" departDelay="0.41" arrival="131.00" arrivalLane="junctionEast_0" arrivalPos="492.80" arrivalSpeed="7.64" duration="130.00" routeLength="994.90" waitingTime="0.00" waitingCount="0" stopTime="0.00" timeLoss="9.93" rerouteNo="0" devices="tripinfo_westEastTop.0 ssm_westEastTop.0" vType="carCustom" speedFactor="1.09" vaporized=""/>
    <tripinfo id="southEast.0" depart="4.00" departLane="southJunction_0" departPos="5.10" departSpeed="8.33" departDelay="0.67" arrival="141.00" arrivalLane="junctionEast_0" arrivalPos="492.80" arrivalSpeed="7.29" duration="137.00" routeLength="989.53" waitingTime="0.00" waitingCount="0" stopTime="0.00" timeLoss="16.94" rerouteNo="0" devices="tripinfo_southEast.0 ssm_southEast.0" vType="carCustom" speedFactor="0.92" vaporized=""/>
    <tripinfo id="southNorth.0" depart="14.00" departLane="southJunction_1" departPos="5.10" departSpeed="8.33" departDelay="0.87" arrival="145.00" arrivalLane="junctionNorth_0" arrivalPos="492.80" arrivalSpeed="7.20" duration="131.00" routeLength="995.01" waitingTime="0.00" waitingCount="0" stopTime="0.00" timeLoss="10.75" rerouteNo="0" devices="tripinfo_southNorth.0 ssm_southNorth.0" vType="carCustom" speedFactor="0.89" vaporized=""/>
    <tripinfo id="westEastBottom0.0" depart="26.00" departLane="westJunction_0" departPos="5.10" departSpeed="8.33" departDelay="0.11" arrival="155.00" arrivalLane="junctionEast_0" arrivalPos="492.80" arrivalSpeed="8.03" duration="129.00" routeLength="994.90" waitingTime="0.00" waitingCount="0" stopTime="0.00" timeLoss="9.57" rerouteNo="0" devices="tripinfo_westEastBottom0.0 ssm_westEastBottom0.0" vType="carCustom" speedFactor="1.24" vaporized=""/>
    <tripinfo id="westEastTop.1" depart="38.00" departLane="westJunction_1" departPos="5.10" departSpeed="8.03" departDelay="0.70" arrival="167.00" arrivalLane="junctionEast_0" arrivalPos="492.80" arrivalSpeed="7.48" duration="129.00" routeLength="994.90" waitingTime="0.00" waitingCount="0" stopTime="0.00" timeLoss="9.31" rerouteNo="0" devices="tripinfo_westEastTop.1 ssm_westEastTop.1" vType="carCustom" speedFactor="1.20" vaporized=""/>
    <tripinfo id="southNorth.1" depart="41.00" departLane="southJunction_1" departPos="5.10" departSpeed="7.52" departDelay="0.76" arrival="171.00" arrivalLane="junctionNorth_0" arrivalPos="492.80" arrivalSpeed="7.98" duration="130.00" routeLength="995.01" waitingTime="0.00" waitingCount="0" stopTime="0.00" timeLoss="10.12" rerouteNo="0" devices="tripinfo_southNorth.1 ssm_southNorth.1" vType="carCustom" speedFactor="1.20" vaporized=""/>
    <tripinfo id="southEast.1" depart="35.00" departLane="southJunction_0" departPos="5.10" departSpeed="7.61" departDelay="0.98" arrival="177.00" arrivalLane="junctionEast_0" arrivalPos="492.80" arrivalSpeed="7.59" duration="142.00" routeLength="989.53" waitingTime="0.00" waitingCount="0" stopTime="0.00" timeLoss="22.70" rerouteNo="0" devices="tripinfo_southEast.1 ssm_southEast.1" vType="carCustom" speedFactor="1.19" vaporized=""/>
    <tripinfo id="westEastTop.2" depart="42.00" departLane="westJunction_1" departPos="5.10" departSpeed="8.22" departDelay="0.28" arrival="177.00" arrivalLane="junctionEast_1" arrivalPos="492.80" arrivalSpeed="7.54" duration="135.00" routeLength="994.90" waitingTime="0.00" waitingCount="0" stopTime="0.00" timeLoss="14.91" rerouteNo="0" devices="tripinfo_westEastTop.2 ssm_westEastTop.2" vType="carCustom" speedFactor="1.09" vaporized=""/>
    <tripinfo id="southNorth.2" depart="45.00" departLane="southJunction_1" departPos="5.10" departSpeed="7.25" departDelay="0.30" arrival="184.00" arrivalLane="junctionNorth_0" arrivalPos="492.80" arrivalSpeed="7.61" duration="139.00" routeLength="995.01" waitingTime="0.00" waitingCount="0" stopTime="0.00" timeLoss="19.40" rerouteNo="0" devices="tripinfo_southNorth.2 ssm_southNorth.2" vType="carCustom" speedFactor="0.88" vaporized=""/>
    <tripinfo id="westEastBottom0.1" depart="41.00" departLane="westJunction_0" departPos="5.10" departSpeed="7.41" departDelay="0.00" arrival="187.00" arrivalLane="junctionEast_1" arrivalPos="492.80" arrivalSpeed="7.63" duration="146.00" routeLength="994.90" waitingTime="4.00" waitingCount="1" stopTime="0.00" timeLoss="25.49" rerouteNo="0" devices="tripinfo_westEastBottom0.1 ssm_westEastBottom0.1" vType="carCustom" speedFactor="1.03" vaporized=""/>
    <tripinfo id="southEast.2" depart="49.00" departLane="southJunction_0" departPos="5.10" departSpeed="8.05" departDelay="0.68" arrival="187.00" arrivalLane="junctionEast_0" arrivalPos="492.80" arrivalSpeed="8.30" duration="138.00" routeLength="989.53" waitingTime="0.00" waitingCount="0" stopTime="0.00" timeLoss="17.95" rerouteNo="0" devices="tripinfo_southEast.2 ssm_southEast.2" vType="carCustom" speedFactor="0.99" vaporized=""/>
    <tripinfo id="southNorth.3" depart="49.00" departLane="southJunction_1" departPos="5.10" departSpeed="4.79" departDelay="0.84" arrival="195.00" arrivalLane="junctionNorth_0" arrivalPos="492.80" arrivalSpeed="7.56" duration="146.00" routeLength="995.01" waitingTime="0.00" waitingCount="0" stopTime="0.00" timeLoss="25.83" rerouteNo="0" devices="tripinfo_southNorth.3 ssm_southNorth.3" vType="carCustom" speedFactor="0.87" vaporized=""/>
    <tripinfo id="westEastBottom0.2" depart="47.00" departLane="westJunction_0" departPos="5.10" departSpeed="7.63" departDelay="0.65" arrival="197.00" arrivalLane="junctionEast_1" arrivalPos="492.80" arrivalSpeed="8.09" duration="150.00" routeLength="994.90" waitingTime="5.00" waitingCount="1" stopTime="0.00" timeLoss="29.24" rerouteNo="0" devices="tripinfo_westEastBottom0.2 ssm_westEastBottom0.2" vType="carCustom" speedFactor="1.20" vaporized=""/>
    <tripinfo id="westEastBottom0.3" depart="51.00" departLane="westJunction_0" departPos="5.10" departSpeed="5.28" departDelay="0.34" arrival="197.00" arrivalLane="junctionEast_0" arrivalPos="492.80" arrivalSpeed="7.48" duration="146.00" routeLength="994.90" waitingTime="0.00" waitingCount="0" stopTime="0.00" timeLoss="25.73" rerouteNo="0" devices="tripinfo_westEastBottom0.3 ssm_westEastBottom0.3" vType="carCustom" speedFactor="1.00" vaporized=""/>
    <tripinfo id="southNorth.4" depart="53.00" departLane="southJunction_1" departPos="5.10" departSpeed="4.12" departDelay="0.51" arrival="205.00" arrivalLane="junctionNorth_0" arrivalPos="492.80" arrivalSpeed="8.19" duration="152.00" routeLength="995.01" waitingTime="0.00" waitingCount="0" stopTime="0.00" timeLoss="32.30" rerouteNo="0" devices="tripinfo_southNorth.4 ssm_southNorth.4" vType="carCustom" speedFactor="1.10" vaporized=""/>
    <tripinfo id="westEastTop.3" depart="46.00" departLane="westJunction_1" departPos="5.10" departSpeed="5.08" departDelay="0.46" arrival="206.00" arrivalLane="junctionEast_1" arrivalPos="492.80" arrivalSpeed="7.46" duration="160.00" routeLength="994.90" waitingTime="2.00" waitingCount="1" stopTime="0.00" timeLoss="40.34" rerouteNo="0" devices="tripinfo_westEastTop.3 ssm_westEastTop.3" vType="carCustom" speedFactor="1.24" vaporized=""/>
    <tripinfo id="westEastBottom0.4" depart="56.00" departLane="westJunction_0" departPos="5.10" departSpeed="4.65" departDelay="0.37" arrival="206.00" arrivalLane="junctionEast_0" arrivalPos="492.80" arrivalSpeed="7.56" duration="150.00" routeLength="994.90" waitingTime="0.00" waitingCount="0" stopTime="0.00" timeLoss="30.16" rerouteNo="0" devices="tripinfo_westEastBottom0.4 ssm_westEastBottom0.4" vType="carCustom" speedFactor="1.07" vaporized=""/>
    <tripinfo id="southNorth.5" depart="57.00" departLane="southJunction_1" departPos="5.10" departSpeed="2.77" departDelay="2.87" arrival="215.00" arrivalLane="junctionNorth_0" arrivalPos="492.80" arrivalSpeed="7.60" duration="158.00" routeLength="995.01" waitingTime="0.00" waitingCount="0" stopTime="0.00" timeLoss="38.45" rerouteNo="0" devices="tripinfo_southNorth.5 ssm_southNorth.5" vType="carCustom" speedFactor="0.90" vaporized=""/>
    <tripinfo id="westEastTop.4" depart="49.00" departLane="westJunction_1" departPos="5.10" departSpeed="3.52" departDelay="0.19" arrival="216.00" arrivalLane="junctionEast_1" arrivalPos="492.80" arrivalSpeed="7.89" duration="167.00" routeLength="994.90" waitingTime="2.00" waitingCount="1" stopTime="0.00" timeLoss="46.86" rerouteNo="0" devices="tripinfo_westEastTop.4 ssm_westEastTop.4" vType="carCustom" speedFactor="0.88" vaporized=""/>
    <tripinfo id="southEast.4" depart="73.00" departLane="southJunction_0" departPos="5.10" departSpeed="7.32" departDelay="0.43" arrival="216.00" arrivalLane="junctionEast_0" arrivalPos="492.80" arrivalSpeed="7.54" duration="143.00" routeLength="989.53" waitingTime="0.00" waitingCount="0" stopTime="0.00" timeLoss="23.33" rerouteNo="0" devices="tripinfo_southEast.4 ssm_southEast.4" vType="carCustom" speedFactor="1.01" vaporized=""/>
    <tripinfo id="westEastBottom0.5" depart="61.00" departLane="westJunction_0" departPos="5.10" departSpeed="3.55" departDelay="0.68" arrival="225.00" arrivalLane="junctionEast_0" arrivalPos="492.80" arrivalSpeed="7.24" duration="164.00" routeLength="994.90" waitingTime="0.00" waitingCount="0" stopTime="0.00" timeLoss="44.55" rerouteNo="0" devices="tripinfo_westEastBottom0.5 ssm_westEastBottom0.5" vType="carCustom" speedFactor="1.15" vaporized=""/>
    <tripinfo id="southEast.5" depart="75.00" departLane="southJunction_0" departPos="5.10" departSpeed="7.37" departDelay="2.09" arrival="225.00" arrivalLane="junctionEast_1" arrivalPos="492.80" arrivalSpeed="7.30" duration="150.00" routeLength="989.53" waitingTime="0.00" waitingCount="0" stopTime="0.00" timeLoss="30.87" rerouteNo="0" devices="tripinfo_southEast.5 ssm_southEast.5" vType="carCustom" speedFactor="1.01" vaporized=""/>
    <tripinfo id="westEastTop.5" depart="54.00" departLane="westJunction_1" departPos="5.10" departSpeed="2.14" departDelay="2.26" arrival="235.00" arrivalLane="junctionEast_1" arrivalPos="492.80" arrivalSpeed="7.56" duration="181.00" routeLength="994.90" waitingTime="1.00" waitingCount="1" stopTime="0.00" timeLoss="60.72" rerouteNo="0" devices="tripinfo_westEastTop.5 ssm_westEastTop.5" vType="carCustom" speedFactor="0.96" vaporized=""/>
    <tripinfo id="westEastBottom0.6" depart="65.00" departLane="westJunction_0" departPos="5.10" departSpeed="3.18" departDelay="2.28" arrival="235.00" arrivalLane="junctionEast_0" arrivalPos="492.80" arrivalSpeed="7.20" duration="170.00" routeLength="994.90" waitingTime="0.00" waitingCount="0" stopTime="0.00" timeLoss="50.17" rerouteNo="0" devices="tripinfo_westEastBottom0.6 ssm_westEastBottom0.6" vType="carCustom" speedFactor="0.97" vaporized=""/>
    <tripinfo id="southNorth.6" depart="63.00" departLane="southJunction_1" departPos="5.10" departSpeed="2.75" departDelay="2.70" arrival="236.00" arrivalLane="junctionNorth_0" arrivalPos="492.80" arrivalSpeed="7.72" duration="173.00" routeLength="995.01" waitingTime="9.00" waitingCount="1" stopTime="0.00" timeLoss="53.53" rerouteNo="0" devices="tripinfo_southNorth.6 ssm_southNorth.6" vType="carCustom" speedFactor="1.04" vaporized=""/>
    <tripinfo id="westEastTop.6" depart="60.00" departLane="westJunction_1" departPos="5.10" departSpeed="2.12" departDelay="7.50" arrival="244.00" arrivalLane="junctionEast_1" arrivalPos="492.80" arrivalSpeed="8.08" duration="184.00" routeLength="994.90" waitingTime="0.00" waitingCount="0" stopTime="0.00" timeLoss="64.15" rerouteNo="0" devices="tripinfo_westEastTop.6 ssm_westEastTop.6" vType="carCustom" speedFactor="0.97" vaporized=""/>
    <tripinfo id="southEast.6" depart="85.00" departLane="southJunction_0" departPos="5.10" departSpeed="5.36" departDelay="0.44" arrival="244.00" arrivalLane="junctionEast_0" arrivalPos="492.80" arrivalSpeed="7.30" duration="159.00" routeLength="989.53" waitingTime="0.00" waitingCount="0" stopTime="0.00" timeLoss="39.56" rerouteNo="0" devices="tripinfo_southEast.6 ssm_southEast.6" vType="carCustom" speedFactor="0.97" vaporized=""/>
    <tripinfo id="southNorth.7" depart="87.00" departLane="southJunction_1" departPos="5.10" departSpeed="4.61" departDelay="0.28" arrival="246.00" arrivalLane="junctionNorth_0" arrivalPos="492.80" arrivalSpeed="8.20" duration="159.00" routeLength="995.01" waitingTime="3.00" waitingCount="1" stopTime="0.00" timeLoss="39.09" rerouteNo="0" devices="tripinfo_southNorth.7 ssm_southNorth.7" vType="carCustom" speedFactor="1.11" vaporized=""/>
    <tripinfo id="westEastBottom0.7" depart="71.00" departLane="westJunction_0" departPos="5.10" departSpeed="2.19" departDelay="0.31" arrival="253.00" arrivalLane="junctionEast_0" arrivalPos="492.80" arrivalSpeed="8.00" duration="182.00" routeLength="994.90" waitingTime="0.00" waitingCount="0" stopTime="0.00" timeLoss="61.89" rerouteNo="0" devices="tripinfo_westEastBottom0.7 ssm_westEastBottom0.7" vType="carCustom" speedFactor="0.99" vaporized=""/>
    <tripinfo id="westEastTop.7" depart="66.00" departLane="westJunction_1" departPos="5.10" departSpeed="2.65" departDelay="7.89" arrival="254.00" arrivalLane="junctionEast_1" arrivalPos="492.80" arrivalSpeed="8.11" duration="188.00" routeLength="994.90" waitingTime="0.00" waitingCount="0" stopTime="0.00" timeLoss="67.81" rerouteNo="0" devices="tripinfo_westEastTop.7 ssm_westEastTop.7" vType="carCustom" speedFactor="1.00" vaporized=""/>
    <tripinfo id="southNorth.8" depart="90.00" departLane="southJunction_1" departPos="5.10" departSpeed="6.56" departDelay="0.29" arrival="256.00" arrivalLane="junctionNorth_0" arrivalPos="492.80" arrivalSpeed="7.77" duration="166.00" routeLength="995.01" waitingTime="2.00" waitingCount="1" stopTime="0.00" timeLoss="46.35" rerouteNo="0" devices="tripinfo_southNorth.8 ssm_southNorth.8" vType="carCustom" speedFactor="1.13" vaporized=""/>
    <tripinfo id="southEast.15" depart="152.00" departLane="southJunction_0" departPos="5.10" departSpeed="8.19" departDelay="3.56" arrival="258.00" arrivalLane="junctionEast_0" arrivalPos="492.80" arrivalSpeed="2.00" duration="106.00" routeLength="989.53" waitingTime="3.00" waitingCount="1" stopTime="0.00" timeLoss="46.02" rerouteNo="0" devices="tripinfo_southEast.15 ssm_southEast.15" vType="carCustom" speedFactor="1.00" vaporized="teleport"/>
    <tripinfo id="westEastBottom0.8" depart="77.00" departLane="westJunction_0" departPos="5.10" departSpeed="1.93" departDelay="1.72" arrival="262.00" arrivalLane="junctionEast_0" arrivalPos="492.80" arrivalSpeed="7.68" duration="185.00" routeLength="994.90" waitingTime="0.00" waitingCount="0" stopTime="0.00" timeLoss="64.86" rerouteNo="0" devices="tripinfo_westEastBottom0.8 ssm_westEastBottom0.8" vType="carCustom" speedFactor="1.09" vaporized=""/>
    <tripinfo id="westEastTop.8" depart="72.00" departLane="westJunction_1" departPos="5.10" departSpeed="1.75" departDelay="10.43" arrival="263.00" arrivalLane="junctionEast_1" arrivalPos="492.80" arrivalSpeed="7.82" duration="191.00" routeLength="994.90" waitingTime="0.00" waitingCount="0" stopTime="0.00" timeLoss="71.00" rerouteNo="0" devices="tripinfo_westEastTop.8 ssm_westEastTop.8" vType="carCustom" speedFactor="0.82" vaporized=""/>
    <tripinfo id="southNorth.9" depart="93.00" departLane="southJunction_1" departPos="5.10" departSpeed="4.02" departDelay="2.03" arrival="268.00" arrivalLane="junctionNorth_0" arrivalPos="492.80" arrivalSpeed="7.64" duration="175.00" routeLength="995.01" waitingTime="6.00" waitingCount="1" stopTime="0.00" timeLoss="55.21" rerouteNo="0" devices="tripinfo_southNorth.9 ssm_southNorth.9" vType="carCustom" speedFactor="0.85" vaporized=""/>
    <tripinfo id="southEast.7" depart="110.00" departLane="southJunction_0" departPos="5.10" departSpeed="6.59" departDelay="0.89" arrival="271.00" arrivalLane="junctionEast_0" arrivalPos="492.80" arrivalSpeed="7.96" duration="161.00" routeLength="989.53" waitingTime="1.00" waitingCount="1" stopTime="0.00" timeLoss="41.03" rerouteNo="0" devices="tripinfo_southEast.7 ssm_southEast.7" vType="carCustom" speedFactor="0.94" vaporized=""/>
    <tripinfo id="westEastTop.9" depart="79.00" departLane="westJunction_1" departPos="5.10" departSpeed="2.38" departDelay="14.48" arrival="272.00" arrivalLane="junctionEast_1" arrivalPos="492.80" arrivalSpeed="8.28" duration="193.00" routeLength="994.90" waitingTime="0.00" waitingCount="0" stopTime="0.00" timeLoss="73.13" rerouteNo="0" devices="tripinfo_westEastTop.9 ssm_westEastTop.9" vType="carCustom" speedFactor="0.85" vaporized=""/>
    <tripinfo id="westEastBottom0.9" depart="95.00" departLane="westJunction_0" departPos="5.10" departSpeed="3.67" departDelay="0.60" arrival="279.00" arrivalLane="junctionEast_0" arrivalPos="492.80" arrivalSpeed="7.16" duration="184.00" routeLength="994.90" waitingTime="0.00" waitingCount="0" stopTime="0.00" timeLoss="64.51" rerouteNo="0" devices="tripinfo_westEastBottom0.9 ssm_westEastBottom0.9" vType="carCustom" speedFactor="1.19" vaporized=""/>
    <tripinfo id="southNorth.10" depart="97.00" departLane="southJunction_1" departPos="5.10" departSpeed="2.28" departDelay="5.55" arrival="281.00" arrivalLane="junctionNorth_0" arrivalPos="492.80" arrivalSpeed="8.27" duration="184.00" routeLength="995.01" waitingTime="7.00" waitingCount="1" stopTime="0.00" timeLoss="64.56" rerouteNo="0" devices="tripinfo_southNorth.10 ssm_southNorth.10" vType="carCustom" speedFactor="1.03" vaporized=""/>
    <tripinfo id="southEast.8" depart="112.00" departLane="southJunction_0" departPos="5.10" departSpeed="7.93" departDelay="2.74" arrival="281.00" arrivalLane="junctionEast_1" arrivalPos="492.80" arrivalSpeed="7.58" duration="169.00" routeLength="989.53" waitingTime="0.00" waitingCount="0" stopTime="0.00" timeLoss="49.33" rerouteNo="0" devices="tripinfo_southEast.8 ssm_southEast.8" vType="carCustom" speedFactor="0.94" vaporized=""/>
    <tripinfo id="southEast.9" depart="115.00" departLane="southJunction_0" departPos="5.10" departSpeed="4.98" departDelay="5.74" arrival="288.00" arrivalLane="junctionEast_0" arrivalPos="492.80" arrivalSpeed="7.97" duration="173.00" routeLength="989.53" waitingTime="0.00" waitingCount="0" stopTime="0.00" timeLoss="53.79" rerouteNo="0" devices="tripinfo_southEast.9 ssm_southEast.9" vType="carCustom" speedFactor="1.01" vaporized=""/>
    <tripinfo id="westEastTop.10" depart="85.00" departLane="westJunction_1" departPos="5.10" departSpeed="2.24" departDelay="16.50" arrival="290.00" arrivalLane="junctionEast_1" arrivalPos="492.80" arrivalSpeed="7.37" duration="205.00" routeLength="994.90" waitingTime="0.00" waitingCount="0" stopTime="0.00" timeLoss="85.13" rerouteNo="0" devices="tripinfo_westEastTop.10 ssm_westEastTop.10" vType="carCustom" speedFactor="1.11" vaporized=""/>
    <tripinfo id="southEast.11" depart="121.00" departLane="southJunction_0" departPos="5.10" departSpeed="3.51" departDelay="5.68" arrival="297.00" arrivalLane="junctionEast_0" arrivalPos="492.80" arrivalSpeed="8.13" duration="176.00" routeLength="989.53" waitingTime="0.00" waitingCount="0" stopTime="0.00" timeLoss="56.82" rerouteNo="0" devices="tripinfo_southEast.11 ssm_southEast.11" vType="carCustom" speedFactor="1.06" vaporized=""/>
    <tripinfo id="southNorth.11" depart="126.00" departLane="southJunction_1" departPos="5.10" departSpeed="4.31" departDelay="0.26" arrival="297.00" arrivalLane="junctionNorth_0" arrivalPos="492.80" arrivalSpeed="8.14" duration="171.00" routeLength="995.01" waitingTime="7.00" waitingCount="1" stopTime="0.00" timeLoss="51.02" rerouteNo="0" devices="tripinfo_southNorth.11 ssm_southNorth.11" vType="carCustom" speedFactor="0.97" vaporized=""/>
    <tripinfo id="southEast.20" depart="192.00" departLane="southJunction_0" departPos="5.10" departSpeed="4.11" departDelay="2.14" arrival="297.00" arrivalLane="junctionEast_0" arrivalPos="492.80" arrivalSpeed="1.47" duration="105.00" routeLength="989.53" waitingTime="0.00" waitingCount="0" stopTime="0.00" timeLoss="44.91" rerouteNo="0" devices="tripinfo_southEast.20 ssm_southEast.20" vType="carCustom" speedFactor="0.93" vaporized="teleport"/>
    <tripinfo id="westEastTop.11" depart="91.00" departLane="westJunction_1" departPos="5.10" departSpeed="1.89" departDelay="22.06" arrival="299.00" arrivalLane="junctionEast_1" arrivalPos="492.80" arrivalSpeed="7.77" duration="208.00" routeLength="994.90" waitingTime="1.00" waitingCount="1" stopTime="0.00" timeLoss="87.74" rerouteNo="0" devices="tripinfo_westEastTop.11 ssm_westEastTop.11" vType="carCustom" speedFactor="0.93" vaporized=""/>
    <tripinfo id="southEast.12" depart="124.00" departLane="southJunction_0" departPos="5.10" departSpeed="4.05" departDelay="3.28" arrival="306.00" arrivalLane="junctionEast_0" arrivalPos="492.80" arrivalSpeed="7.28" duration="182.00" routeLength="989.53" waitingTime="0.00" waitingCount="0" stopTime="0.00" timeLoss="62.95" rerouteNo="0" devices="tripinfo_southEast.12 ssm_southEast.12" vType="carCustom" speedFactor="1.21" vaporized=""/>
    <tripinfo id="westEastTop.12" depart="98.00" departLane="westJunction_1" departPos="5.10" departSpeed="1.92" departDelay="28.64" arrival="307.00" arrivalLane="junctionEast_1" arrivalPos="492.80" arrivalSpeed="7.76" duration="209.00" routeLength="994.90" waitingTime="0.00" waitingCount="0" stopTime="0.00" timeLoss="89.39" rerouteNo="0" devices="tripinfo_westEastTop.12 ssm_westEastTop.12" vType="carCustom" speedFactor="0.97" vaporized=""/>
    <tripinfo id="southNorth.12" depart="147.00" departLane="southJunction_1" departPos="5.10" departSpeed="4.13" departDelay="0.02" arrival="312.00" arrivalLane="junctionNorth_0" arrivalPos="492.80" arrivalSpeed="7.23" duration="165.00" routeLength="995.01" waitingTime="9.00" waitingCount="1" stopTime="0.00" timeLoss="44.85" rerouteNo="0" devices="tripinfo_southNorth.12 ssm_southNorth.12" vType="carCustom" speedFactor="0.95" vaporized=""/>
    <tripinfo id="westEastBottom0.10" depart="152.00" departLane="westJunction_0" departPos="5.10" departSpeed="6.08" departDelay="0.61" arrival="315.00" arrivalLane="junctionEast_0" arrivalPos="492.80" arrivalSpeed="8.16" duration="163.00" routeLength="994.90" waitingTime="0.00" waitingCount="0" stopTime="0.00" timeLoss="42.82" rerouteNo="0" devices="tripinfo_westEastBottom0.10 ssm_westEastBottom0.10" vType="carCustom" speedFactor="1.01" vaporized=""/>
    <tripinfo id="westEastTop.13" depart="105.00" departLane="westJunction_1" departPos="5.10" departSpeed="1.95" departDelay="35.07" arrival="316.00" arrivalLane="junctionEast_1" arrivalPos="492.80" arrivalSpeed="7.61" duration="211.00" routeLength="994.90" waitingTime="0.00" waitingCount="0" stopTime="0.00" timeLoss="91.27" rerouteNo="0" devices="tripinfo_westEastTop.13 ssm_westEastTop.13" vType="carCustom" speedFactor="1.06" vaporized=""/>
    <tripinfo id="southNorth.13" depart="161.00" departLane="southJunction_1" departPos="5.10" departSpeed="6.15" departDelay="0.83" arrival="321.00" arrivalLane="junctionNorth_0" arrivalPos="492.80" arrivalSpeed="8.10" duration="160.00" routeLength="995.01" waitingTime="6.00" waitingCount="2" stopTime="0.00" timeLoss="40.37" rerouteNo="0" devices="tripinfo_southNorth.13 ssm_southNorth.13" vType="carCustom" speedFactor="1.20" vaporized=""/>
    <tripinfo id="southEast.10" depart="117.00" departLane="southJunction_0" departPos="5.10" departSpeed="3.79" departDelay="5.71" arrival="323.00" arrivalLane="junctionEast_0" arrivalPos="492.80" arrivalSpeed="7.61" duration="206.00" routeLength="989.53" waitingTime="0.00" waitingCount="0" stopTime="0.00" timeLoss="86.86" rerouteNo="0" devices="tripinfo_southEast.10 ssm_southEast.10" vType="carCustom" speedFactor="1.10" vaporized=""/>
    <tripinfo id="westEastBottom0.11" depart="154.00" departLane="westJunction_0" departPos="5.10" departSpeed="7.60" departDelay="1.90" arrival="325.00" arrivalLane="junctionEast_1" arrivalPos="492.80" arrivalSpeed="7.25" duration="171.00" routeLength="994.90" waitingTime="0.00" waitingCount="0" stopTime="0.00" timeLoss="50.95" rerouteNo="0" devices="tripinfo_westEastBottom0.11 ssm_westEastBottom0.11" vType="carCustom" speedFactor="1.06" vaporized=""/>
    <tripinfo id="southEast.13" depart="133.00" departLane="southJunction_0" departPos="5.10" departSpeed="3.95" departDelay="0.27" arrival="331.00" arrivalLane="junctionEast_0" arrivalPos="492.80" arrivalSpeed="8.09" duration="198.00" routeLength="989.53" waitingTime="0.00" waitingCount="0" stopTime="0.00" timeLoss="78.24" rerouteNo="0" devices="tripinfo_southEast.13 ssm_southEast.13" vType="carCustom" speedFactor="0.84" vaporized=""/>
    <tripinfo id="southNorth.14" depart="163.00" departLane="southJunction_1" departPos="5.10" departSpeed="7.81" departDelay="0.10" arrival="332.00" arrivalLane="junctionNorth_0" arrivalPos="492.80" arrivalSpeed="7.13" duration="169.00" routeLength="995.01" waitingTime="3.00" waitingCount="1" stopTime="0.00" timeLoss="49.43" rerouteNo="0" devices="tripinfo_southNorth.14 ssm_southNorth.14" vType="carCustom" speedFactor="0.96" vaporized=""/>
    <tripinfo id="westEastTop.14" depart="111.00" departLane="westJunction_1" departPos="5.10" departSpeed="1.81" departDelay="33.70" arrival="333.00" arrivalLane="junctionEast_1" arrivalPos="492.80" arrivalSpeed="8.06" duration="222.00" routeLength="994.90" waitingTime="5.00" waitingCount="1" stopTime="0.00" timeLoss="101.89" rerouteNo="0" devices="tripinfo_westEastTop.14 ssm_westEastTop.14" vType="carCustom" speedFactor="1.03" vaporized=""/>
    <tripinfo id="southEast.22" depart="206.00" departLane="southJunction_0" departPos="5.10" departSpeed="6.54" departDelay="2.62" arrival="334.00" arrivalLane="junctionEast_0" arrivalPos="492.80" arrivalSpeed="0.98" duration="128.00" routeLength="989.53" waitingTime="2.00" waitingCount="1" stopTime="0.00" timeLoss="67.95" rerouteNo="0" devices="tripinfo_southEast.22 ssm_southEast.22" vType="carCustom" speedFactor="0.96" vaporized="teleport"/>
    <tripinfo id="westEastBottom0.12" depart="157.00" departLane="westJunction_0" departPos="5.10" departSpeed="4.65" departDelay="4.67" arrival="340.00" arrivalLane="junctionEast_0" arrivalPos="492.80" arrivalSpeed="7.88" duration="183.00" routeLength="994.90" waitingTime="0.00" waitingCount="0" stopTime="0.00" timeLoss="63.06" rerouteNo="0" devices="tripinfo_westEastBottom0.12 ssm_westEastBottom0.12" vType="carCustom" speedFactor="1.02" vaporized=""/>
    <tripinfo id="southEast.24" depart="228.00" departLane="southJunction_0" departPos="5.10" departSpeed="5.90" departDelay="0.05" arrival="340.00" arrivalLane="junctionEast_0" arrivalPos="492.80" arrivalSpeed="1.70" duration="112.00" routeLength="989.53" waitingTime="0.00" waitingCount="0" stopTime="0.00" timeLoss="52.02" rerouteNo="0" devices="tripinfo_southEast.24 ssm_southEast.24" vType="carCustom" speedFactor="1.04" vaporized="teleport"/>
    <tripinfo id="westEastTop.15" depart="119.00" departLane="westJunction_1" departPos="5.10" departSpeed="1.72" departDelay="38.64" arrival="341.00" arrivalLane="junctionEast_1" arrivalPos="492.80" arrivalSpeed="7.85" duration="222.00" routeLength="994.90" waitingTime="0.00" waitingCount="0" stopTime="0.00" timeLoss="102.52" rerouteNo="0" devices="tripinfo_westEastTop.15 ssm_westEastTop.15" vType="carCustom" speedFactor="0.84" vaporized=""/>
    <tripinfo id="southNorth.15" depart="166.00" departLane="southJunction_1" departPos="5.10" departSpeed="4.86" departDelay="2.96" arrival="342.00" arrivalLane="junctionNorth_0" arrivalPos="492.80" arrivalSpeed="7.59" duration="176.00" routeLength="995.01" waitingTime="3.00" waitingCount="1" stopTime="0.00" timeLoss="56.17" rerouteNo="0" devices="tripinfo_southNorth.15 ssm_southNorth.15" vType="carCustom" speedFactor="1.00" vaporized=""/>