<?xml version="1.0" encoding="UTF-8"?>

<!-- generated on 2025-04-29 05:44:46 by Eclipse SUMO sumo Version 1.20.0
<configuration xmlns:xsi="http://www.w3.org/2001/XMLSchema-instance" xsi:noNamespaceSchemaLocation="http://sumo.dlr.de/xsd/sumoConfiguration.xsd">

    <input>
        <net-file value="nets/2lane_unprotected_right/2lane_unprotected_right.net.xml"/>
        <route-files value="nets/2lane_unprotected_right/2lane_unprotected_right.rou.xml"/>
    </input>

    <output>
        <tripinfo-output value="traces/transs50f0.5_s50_f1_random/0077_tripinfo.xml"/>
        <collision-output value="traces/transs50f0.5_s50_f1_random/0077_collisions.xml"/>
        <statistic-output value="traces/transs50f0.5_s50_f1_random/0077_statistics.xml"/>
    </output>

    <processing>
        <collision.action value="teleport"/>
        <collision.check-junctions value="true"/>
        <time-to-teleport value="-1"/>
        <waiting-time-memory value="1000"/>
        <max-depart-delay value="-1"/>
        <default.speeddev value="0.1"/>
    </processing>

    <report>
        <no-warnings value="true"/>
    </report>

    <ssm_device>
        <device.ssm.probability value="1.0"/>
        <device.ssm.measures value="BR"/>
        <device.ssm.file value="/Users/finn/Code/CausalKnowledgeTransfer-4-SafeRL/traces/transs50f0.5_s50_f1_random/0077_ssm.xml"/>
    </ssm_device>

    <traci_server>
        <remote-port value="63358"/>
    </traci_server>

    <random_number>
        <random value="true"/>
    </random_number>

</configuration>
-->

<tripinfos xmlns:xsi="http://www.w3.org/2001/XMLSchema-instance" xsi:noNamespaceSchemaLocation="http://sumo.dlr.de/xsd/tripinfo_file.xsd">
    <tripinfo id="southEast.0" depart="3.00" departLane="southJunction_0" departPos="5.10" departSpeed="8.33" departDelay="0.91" arrival="68.00" arrivalLane="junctionEast_0" arrivalPos="492.80" arrivalSpeed="5.92" duration="65.00" routeLength="989.53" waitingTime="0.00" waitingCount="0" stopTime="0.00" timeLoss="4.61" rerouteNo="0" devices="tripinfo_southEast.0 ssm_southEast.0" vType="carCustom" speedFactor="1.01" vaporized="teleport"/>
    <tripinfo id="westEastBottom0.0" depart="1.00" departLane="westJunction_0" departPos="5.10" departSpeed="8.33" departDelay="0.29" arrival="131.00" arrivalLane="junctionEast_0" arrivalPos="492.80" arrivalSpeed="7.69" duration="130.00" routeLength="994.90" waitingTime="0.00" waitingCount="0" stopTime="0.00" timeLoss="10.27" rerouteNo="0" devices="tripinfo_westEastBottom0.0 ssm_westEastBottom0.0" vType="carCustom" speedFactor="1.14" vaporized=""/>
    <tripinfo id="southNorth.0" depart="8.00" departLane="southJunction_1" departPos="5.10" departSpeed="8.33" departDelay="0.80" arrival="136.00" arrivalLane="junctionNorth_0" arrivalPos="492.80" arrivalSpeed="8.22" duration="128.00" routeLength="995.01" waitingTime="0.00" waitingCount="0" stopTime="0.00" timeLoss="8.00" rerouteNo="0" devices="tripinfo_southNorth.0 ssm_southNorth.0" vType="carCustom" speedFactor="1.00" vaporized=""/>
    <tripinfo id="westEastTop.0" depart="4.00" departLane="westJunction_1" departPos="5.10" departSpeed="8.33" departDelay="0.87" arrival="140.00" arrivalLane="junctionEast_0" arrivalPos="492.80" arrivalSpeed="7.51" duration="136.00" routeLength="994.90" waitingTime="0.00" waitingCount="0" stopTime="0.00" timeLoss="15.73" rerouteNo="0" devices="tripinfo_westEastTop.0 ssm_westEastTop.0" vType="carCustom" speedFactor="1.14" vaporized=""/>
    <tripinfo id="westEastTop.1" depart="6.00" departLane="westJunction_1" departPos="5.10" departSpeed="7.70" departDelay="2.17" arrival="144.00" arrivalLane="junctionEast_0" arrivalPos="492.80" arrivalSpeed="7.64" duration="138.00" routeLength="994.90" waitingTime="0.00" waitingCount="0" stopTime="0.00" timeLoss="18.13" rerouteNo="0" devices="tripinfo_westEastTop.1 ssm_westEastTop.1" vType="carCustom" speedFactor="0.95" vaporized=""/>
    <tripinfo id="westEastBottom0.1" depart="6.00" departLane="westJunction_0" departPos="5.10" departSpeed="7.59" departDelay="0.11" arrival="150.00" arrivalLane="junctionEast_0" arrivalPos="492.80" arrivalSpeed="8.03" duration="144.00" routeLength="994.90" waitingTime="0.00" waitingCount="0" stopTime="0.00" timeLoss="24.22" rerouteNo="0" devices="tripinfo_westEastBottom0.1 ssm_westEastBottom0.1" vType="carCustom" speedFactor="0.92" vaporized=""/>
    <tripinfo id="westEastTop.2" depart="9.00" departLane="westJunction_1" departPos="5.10" departSpeed="5.03" departDelay="4.79" arrival="157.00" arrivalLane="junctionEast_0" arrivalPos="492.80" arrivalSpeed="7.65" duration="148.00" routeLength="994.90" waitingTime="0.00" waitingCount="0" stopTime="0.00" timeLoss="27.92" rerouteNo="0" devices="tripinfo_westEastTop.2 ssm_westEastTop.2" vType="carCustom" speedFactor="0.94" vaporized=""/>
    <tripinfo id="southNorth.1" depart="27.00" departLane="southJunction_1" departPos="5.10" departSpeed="8.07" departDelay="0.98" arrival="157.00" arrivalLane="junctionNorth_0" arrivalPos="492.80" arrivalSpeed="7.48" duration="130.00" routeLength="995.01" waitingTime="0.00" waitingCount="0" stopTime="0.00" timeLoss="10.53" rerouteNo="0" devices="tripinfo_southNorth.1 ssm_southNorth.1" vType="carCustom" speedFactor="0.90" vaporized=""/>
    <tripinfo id="westEastBottom0.2" depart="9.00" departLane="westJunction_0" departPos="5.10" departSpeed="5.43" departDelay="2.83" arrival="158.00" arrivalLane="junctionEast_1" arrivalPos="492.80" arrivalSpeed="7.44" duration="149.00" routeLength="994.90" waitingTime="0.00" waitingCount="0" stopTime="0.00" timeLoss="29.50" rerouteNo="0" devices="tripinfo_westEastBottom0.2 ssm_westEastBottom0.2" vType="carCustom" speedFactor="0.86" vaporized=""/>
    <tripinfo id="westEastTop.3" depart="17.00" departLane="westJunction_1" departPos="5.10" departSpeed="3.80" departDelay="0.17" arrival="167.00" arrivalLane="junctionEast_0" arrivalPos="492.80" arrivalSpeed="8.02" duration="150.00" routeLength="994.90" waitingTime="0.00" waitingCount="0" stopTime="0.00" timeLoss="30.32" rerouteNo="0" devices="tripinfo_westEastTop.3 ssm_westEastTop.3" vType="carCustom" speedFactor="1.12" vaporized=""/>
    <tripinfo id="southNorth.2" depart="30.00" departLane="southJunction_1" departPos="5.10" departSpeed="7.38" departDelay="0.29" arrival="173.00" arrivalLane="junctionNorth_0" arrivalPos="492.80" arrivalSpeed="7.71" duration="143.00" routeLength="995.01" waitingTime="0.00" waitingCount="0" stopTime="0.00" timeLoss="23.18" rerouteNo="0" devices="tripinfo_southNorth.2 ssm_southNorth.2" vType="carCustom" speedFactor="0.93" vaporized=""/>
    <tripinfo id="westEastTop.4" depart="25.00" departLane="westJunction_1" departPos="5.10" departSpeed="3.70" departDelay="0.48" arrival="177.00" arrivalLane="junctionEast_0" arrivalPos="492.80" arrivalSpeed="7.82" duration="152.00" routeLength="994.90" waitingTime="0.00" waitingCount="0" stopTime="0.00" timeLoss="32.09" rerouteNo="0" devices="tripinfo_westEastTop.4 ssm_westEastTop.4" vType="carCustom" speedFactor="1.02" vaporized=""/>
    <tripinfo id="southEast.1" depart="41.00" departLane="southJunction_0" departPos="5.10" departSpeed="7.60" departDelay="0.42" arrival="179.00" arrivalLane="junctionEast_1" arrivalPos="492.80" arrivalSpeed="7.87" duration="138.00" routeLength="989.53" waitingTime="0.00" waitingCount="0" stopTime="0.00" timeLoss="17.88" rerouteNo="0" devices="tripinfo_southEast.1 ssm_southEast.1" vType="carCustom" speedFactor="0.88" vaporized=""/>
    <tripinfo id="southNorth.3" depart="50.00" departLane="southJunction_1" departPos="5.10" departSpeed="5.99" departDelay="0.64" arrival="184.00" arrivalLane="junctionNorth_0" arrivalPos="492.80" arrivalSpeed="7.55" duration="134.00" routeLength="995.01" waitingTime="0.00" waitingCount="0" stopTime="0.00" timeLoss="14.43" rerouteNo="0" devices="tripinfo_southNorth.3 ssm_southNorth.3" vType="carCustom" speedFactor="0.94" vaporized=""/>
    <tripinfo id="westEastTop.5" depart="37.00" departLane="westJunction_1" departPos="5.10" departSpeed="4.21" departDelay="0.21" arrival="189.00" arrivalLane="junctionEast_1" arrivalPos="492.80" arrivalSpeed="7.99" duration="152.00" routeLength="994.90" waitingTime="0.00" waitingCount="0" stopTime="0.00" timeLoss="31.96" rerouteNo="0" devices="tripinfo_westEastTop.5 ssm_westEastTop.5" vType="carCustom" speedFactor="1.05" vaporized=""/>
    <tripinfo id="southEast.2" depart="47.00" departLane="southJunction_0" departPos="5.10" departSpeed="8.24" departDelay="0.69" arrival="189.00" arrivalLane="junctionEast_0" arrivalPos="492.80" arrivalSpeed="7.36" duration="142.00" routeLength="989.53" waitingTime="0.00" waitingCount="0" stopTime="0.00" timeLoss="22.00" rerouteNo="0" devices="tripinfo_southEast.2 ssm_southEast.2" vType="carCustom" speedFactor="0.80" vaporized=""/>
    <tripinfo id="southNorth.4" depart="54.00" departLane="southJunction_1" departPos="5.10" departSpeed="7.21" departDelay="0.94" arrival="197.00" arrivalLane="junctionNorth_0" arrivalPos="492.80" arrivalSpeed="8.11" duration="143.00" routeLength="995.01" waitingTime="0.00" waitingCount="0" stopTime="0.00" timeLoss="23.21" rerouteNo="0" devices="tripinfo_southNorth.4 ssm_southNorth.4" vType="carCustom" speedFactor="0.97" vaporized=""/>
    <tripinfo id="westEastBottom0.3" depart="51.00" departLane="westJunction_0" departPos="5.10" departSpeed="6.82" departDelay="0.17" arrival="199.00" arrivalLane="junctionEast_0" arrivalPos="492.80" arrivalSpeed="8.15" duration="148.00" routeLength="994.90" waitingTime="5.00" waitingCount="1" stopTime="0.00" timeLoss="27.46" rerouteNo="0" devices="tripinfo_westEastBottom0.3 ssm_westEastBottom0.3" vType="carCustom" speedFactor="0.96" vaporized=""/>
    <tripinfo id="westEastBottom0.4" depart="63.00" departLane="westJunction_0" departPos="5.10" departSpeed="7.76" departDelay="0.69" arrival="200.00" arrivalLane="junctionEast_1" arrivalPos="492.80" arrivalSpeed="7.68" duration="137.00" routeLength="994.90" waitingTime="0.00" waitingCount="0" stopTime="0.00" timeLoss="16.80" rerouteNo="0" devices="tripinfo_westEastBottom0.4 ssm_westEastBottom0.4" vType="carCustom" speedFactor="1.16" vaporized=""/>
    <tripinfo id="southEast.3" depart="55.00" departLane="southJunction_0" departPos="5.10" departSpeed="5.93" departDelay="0.79" arrival="210.00" arrivalLane="junctionEast_0" arrivalPos="492.80" arrivalSpeed="7.92" duration="155.00" routeLength="989.53" waitingTime="0.00" waitingCount="0" stopTime="0.00" timeLoss="35.02" rerouteNo="0" devices="tripinfo_southEast.3 ssm_southEast.3" vType="carCustom" speedFactor="1.03" vaporized=""/>
    <tripinfo id="westEastTop.6" depart="40.00" departLane="westJunction_1" departPos="5.10" departSpeed="4.66" departDelay="1.32" arrival="211.00" arrivalLane="junctionEast_1" arrivalPos="492.80" arrivalSpeed="7.66" duration="171.00" routeLength="994.90" waitingTime="0.00" waitingCount="0" stopTime="0.00" timeLoss="50.80" rerouteNo="0" devices="tripinfo_westEastTop.6 ssm_westEastTop.6" vType="carCustom" speedFactor="1.12" vaporized=""/>
    <tripinfo id="southNorth.5" depart="57.00" departLane="southJunction_1" departPos="5.10" departSpeed="4.94" departDelay="0.78" arrival="212.00" arrivalLane="junctionNorth_0" arrivalPos="492.80" arrivalSpeed="7.54" duration="155.00" routeLength="995.01" waitingTime="3.00" waitingCount="1" stopTime="0.00" timeLoss="35.40" rerouteNo="0" devices="tripinfo_southNorth.5 ssm_southNorth.5" vType="carCustom" speedFactor="0.81" vaporized=""/>
    <tripinfo id="westEastBottom0.5" depart="72.00" departLane="westJunction_0" departPos="5.10" departSpeed="7.79" departDelay="0.50" arrival="219.00" arrivalLane="junctionEast_0" arrivalPos="492.80" arrivalSpeed="7.69" duration="147.00" routeLength="994.90" waitingTime="0.00" waitingCount="0" stopTime="0.00" timeLoss="27.17" rerouteNo="0" devices="tripinfo_westEastBottom0.5 ssm_westEastBottom0.5" vType="carCustom" speedFactor="0.96" vaporized=""/>
    <tripinfo id="southEast.4" depart="80.00" departLane="southJunction_0" departPos="5.10" departSpeed="6.36" departDelay="0.01" arrival="221.00" arrivalLane="junctionEast_1" arrivalPos="492.80" arrivalSpeed="7.49" duration="141.00" routeLength="989.53" waitingTime="0.00" waitingCount="0" stopTime="0.00" timeLoss="21.73" rerouteNo="0" devices="tripinfo_southEast.4 ssm_southEast.4" vType="carCustom" speedFactor="1.07" vaporized=""/>
    <tripinfo id="southNorth.6" depart="61.00" departLane="southJunction_1" departPos="5.10" departSpeed="2.40" departDelay="4.48" arrival="224.00" arrivalLane="junctionNorth_0" arrivalPos="492.80" arrivalSpeed="7.82" duration="163.00" routeLength="995.01" waitingTime="0.00" waitingCount="0" stopTime="0.00" timeLoss="42.85" rerouteNo="0" devices="tripinfo_southNorth.6 ssm_southNorth.6" vType="carCustom" speedFactor="0.98" vaporized=""/>
    <tripinfo id="westEastBottom0.6" depart="86.00" departLane="westJunction_0" departPos="5.10" departSpeed="7.08" departDelay="0.73" arrival="229.00" arrivalLane="junctionEast_0" arrivalPos="492.80" arrivalSpeed="7.78" duration="143.00" routeLength="994.90" waitingTime="0.00" waitingCount="0" stopTime="0.00" timeLoss="23.29" rerouteNo="0" devices="tripinfo_westEastBottom0.6 ssm_westEastBottom0.6" vType="carCustom" speedFactor="0.92" vaporized=""/>
    <tripinfo id="westEastTop.7" depart="47.00" departLane="westJunction_1" departPos="5.10" departSpeed="3.86" departDelay="0.28" arrival="231.00" arrivalLane="junctionEast_1" arrivalPos="492.80" arrivalSpeed="8.13" duration="184.00" routeLength="994.90" waitingTime="5.00" waitingCount="1" stopTime="0.00" timeLoss="63.70" rerouteNo="0" devices="tripinfo_westEastTop.7 ssm_westEastTop.7" vType="carCustom" speedFactor="0.94" vaporized=""/>
    <tripinfo id="southNorth.7" depart="98.00" departLane="southJunction_1" departPos="5.10" departSpeed="5.71" departDelay="0.79" arrival="234.00" arrivalLane="junctionNorth_0" arrivalPos="492.80" arrivalSpeed="8.17" duration="136.00" routeLength="995.01" waitingTime="0.00" waitingCount="0" stopTime="0.00" timeLoss="16.47" rerouteNo="0" devices="tripinfo_southNorth.7 ssm_southNorth.7" vType="carCustom" speedFactor="1.01" vaporized=""/>
    <tripinfo id="southEast.5" depart="96.00" departLane="southJunction_0" departPos="5.10" departSpeed="7.79" departDelay="0.74" arrival="240.00" arrivalLane="junctionEast_0" arrivalPos="492.80" arrivalSpeed="8.27" duration="144.00" routeLength="989.53" waitingTime="0.00" waitingCount="0" stopTime="0.00" timeLoss="24.05" rerouteNo="0" devices="tripinfo_southEast.5 ssm_southEast.5" vType="carCustom" speedFactor="1.11" vaporized=""/>
    <tripinfo id="westEastTop.8" depart="67.00" departLane="westJunction_1" departPos="5.10" departSpeed="4.48" departDelay="0.64" arrival="241.00" arrivalLane="junctionEast_1" arrivalPos="492.80" arrivalSpeed="7.23" duration="174.00" routeLength="994.90" waitingTime="1.00" waitingCount="1" stopTime="0.00" timeLoss="54.54" rerouteNo="0" devices="tripinfo_westEastTop.8 ssm_westEastTop.8" vType="carCustom" speedFactor="0.89" vaporized=""/>
    <tripinfo id="southNorth.8" depart="106.00" departLane="southJunction_1" departPos="5.10" departSpeed="8.25" departDelay="0.82" arrival="248.00" arrivalLane="junctionNorth_0" arrivalPos="492.80" arrivalSpeed="7.79" duration="142.00" routeLength="995.01" waitingTime="2.00" waitingCount="1" stopTime="0.00" timeLoss="21.68" rerouteNo="0" devices="tripinfo_southNorth.8 ssm_southNorth.8" vType="carCustom" speedFactor="1.09" vaporized=""/>
    <tripinfo id="westEastBottom0.7" depart="110.00" departLane="westJunction_0" departPos="5.10" departSpeed="7.43" departDelay="1.00" arrival="249.00" arrivalLane="junctionEast_0" arrivalPos="492.80" arrivalSpeed="7.40" duration="139.00" routeLength="994.90" waitingTime="0.00" waitingCount="0" stopTime="0.00" timeLoss="19.02" rerouteNo="0" devices="tripinfo_westEastBottom0.7 ssm_westEastBottom0.7" vType="carCustom" speedFactor="1.12" vaporized=""/>
    <tripinfo id="southEast.8" depart="185.00" departLane="southJunction_0" departPos="5.10" departSpeed="8.33" departDelay="0.07" arrival="251.00" arrivalLane="junctionEast_0" arrivalPos="492.80" arrivalSpeed="5.92" duration="66.00" routeLength="989.53" waitingTime="0.00" waitingCount="0" stopTime="0.00" timeLoss="5.85" rerouteNo="0" devices="tripinfo_southEast.8 ssm_southEast.8" vType="carCustom" speedFactor="0.99" vaporized="teleport"/>
    <tripinfo id="westEastTop.10" depart="74.00" departLane="westJunction_1" departPos="5.10" departSpeed="3.28" departDelay="0.56" arrival="252.00" arrivalLane="junctionEast_0" arrivalPos="492.80" arrivalSpeed="8.08" duration="178.00" routeLength="994.90" waitingTime="0.00" waitingCount="0" stopTime="0.00" timeLoss="57.68" rerouteNo="0" devices="tripinfo_westEastTop.10 ssm_westEastTop.10" vType="carCustom" speedFactor="0.85" vaporized=""/>
    <tripinfo id="southNorth.9" depart="110.00" departLane="southJunction_1" departPos="5.10" departSpeed="6.76" departDelay="0.78" arrival="258.00" arrivalLane="junctionNorth_0" arrivalPos="492.80" arrivalSpeed="8.31" duration="148.00" routeLength="995.01" waitingTime="0.00" waitingCount="0" stopTime="0.00" timeLoss="28.56" rerouteNo="0" devices="tripinfo_southNorth.9 ssm_southNorth.9" vType="carCustom" speedFactor="0.95" vaporized=""/>
    <tripinfo id="westEastTop.9" depart="70.00" departLane="westJunction_1" departPos="5.10" departSpeed="6.14" departDelay="1.58" arrival="259.00" arrivalLane="junctionEast_0" arrivalPos="492.80" arrivalSpeed="7.76" duration="189.00" routeLength="994.90" waitingTime="0.00" waitingCount="0" stopTime="0.00" timeLoss="68.98" rerouteNo="0" devices="tripinfo_westEastTop.9 ssm_westEastTop.9" vType="carCustom" speedFactor="1.14" vaporized=""/>
    <tripinfo id="southEast.6" depart="104.00" departLane="southJunction_0" departPos="5.10" departSpeed="7.74" departDelay="0.69" arrival="262.00" arrivalLane="junctionEast_0" arrivalPos="492.80" arrivalSpeed="7.70" duration="158.00" routeLength="989.53" waitingTime="4.00" waitingCount="1" stopTime="0.00" timeLoss="38.06" rerouteNo="0" devices="tripinfo_southEast.6 ssm_southEast.6" vType="carCustom" speedFactor="0.98" vaporized=""/>
    <tripinfo id="westEastBottom0.8" depart="121.00" departLane="westJunction_0" departPos="5.10" departSpeed="7.14" departDelay="0.68" arrival="269.00" arrivalLane="junctionEast_0" arrivalPos="492.80" arrivalSpeed="7.49" duration="148.00" routeLength="994.90" waitingTime="0.00" waitingCount="0" stopTime="0.00" timeLoss="27.89" rerouteNo="0" devices="tripinfo_westEastBottom0.8 ssm_westEastBottom0.8" vType="carCustom" speedFactor="1.17" vaporized=""/>
    <tripinfo id="southNorth.10" depart="134.00" departLane="southJunction_1" departPos="5.10" departSpeed="6.40" departDelay="0.75" arrival="270.00" arrivalLane="junctionNorth_0" arrivalPos="492.80" arrivalSpeed="8.03" duration="136.00" routeLength="995.01" waitingTime="0.00" waitingCount="0" stopTime="0.00" timeLoss="15.81" rerouteNo="0" devices="tripinfo_southNorth.10 ssm_southNorth.10" vType="carCustom" speedFactor="0.96" vaporized=""/>
    <tripinfo id="westEastTop.11" depart="79.00" departLane="westJunction_1" departPos="5.10" departSpeed="2.18" departDelay="5.05" arrival="271.00" arrivalLane="junctionEast_0" arrivalPos="492.80" arrivalSpeed="7.56" duration="192.00" routeLength="994.90" waitingTime="0.00" waitingCount="0" stopTime="0.00" timeLoss="72.50" rerouteNo="0" devices="tripinfo_westEastTop.11 ssm_westEastTop.11" vType="carCustom" speedFactor="1.14" vaporized=""/>
    <tripinfo id="westEastBottom0.9" depart="134.00" departLane="westJunction_0" departPos="5.10" departSpeed="8.06" departDelay="0.06" arrival="278.00" arrivalLane="junctionEast_0" arrivalPos="492.80" arrivalSpeed="8.14" duration="144.00" routeLength="994.90" waitingTime="0.00" waitingCount="0" stopTime="0.00" timeLoss="24.28" rerouteNo="0" devices="tripinfo_westEastBottom0.9 ssm_westEastBottom0.9" vType="carCustom" speedFactor="1.04" vaporized=""/>
    <tripinfo id="southNorth.11" depart="148.00" departLane="southJunction_1" departPos="5.10" departSpeed="8.05" departDelay="0.07" arrival="281.00" arrivalLane="junctionNorth_0" arrivalPos="492.80" arrivalSpeed="7.23" duration="133.00" routeLength="995.01" waitingTime="0.00" waitingCount="0" stopTime="0.00" timeLoss="12.99" rerouteNo="0" devices="tripinfo_southNorth.11 ssm_southNorth.11" vType="carCustom" speedFactor="0.95" vaporized=""/>
    <tripinfo id="westEastTop.13" depart="91.00" departLane="westJunction_1" departPos="5.10" departSpeed="1.86" departDelay="14.48" arrival="285.00" arrivalLane="junctionEast_0" arrivalPos="492.80" arrivalSpeed="7.66" duration="194.00" routeLength="994.90" waitingTime="0.00" waitingCount="0" stopTime="0.00" timeLoss="73.73" rerouteNo="0" devices="tripinfo_westEastTop.13 ssm_westEastTop.13" vType="carCustom" speedFactor="0.81" vaporized=""/>
    <tripinfo id="southEast.7" depart="151.00" departLane="southJunction_0" departPos="5.10" departSpeed="8.08" departDelay="0.44" arrival="291.00" arrivalLane="junctionEast_0" arrivalPos="492.80" arrivalSpeed="7.44" duration="140.00" routeLength="989.53" waitingTime="0.00" waitingCount="0" stopTime="0.00" timeLoss="20.01" rerouteNo="0" devices="tripinfo_southEast.7 ssm_southEast.7" vType="carCustom" speedFactor="0.88" vaporized=""/>
    <tripinfo id="southNorth.12" depart="151.00" departLane="southJunction_1" departPos="5.10" departSpeed="7.55" departDelay="0.13" arrival="292.00" arrivalLane="junctionNorth_0" arrivalPos="492.80" arrivalSpeed="7.77" duration="141.00" routeLength="995.01" waitingTime="0.00" waitingCount="0" stopTime="0.00" timeLoss="20.94" rerouteNo="0" devices="tripinfo_southNorth.12 ssm_southNorth.12" vType="carCustom" speedFactor="1.09" vaporized=""/>
    <tripinfo id="westEastTop.12" depart="85.00" departLane="westJunction_1" departPos="5.10" departSpeed="2.72" departDelay="9.43" arrival="295.00" arrivalLane="junctionEast_0" arrivalPos="492.80" arrivalSpeed="7.40" duration="210.00" routeLength="994.90" waitingTime="0.00" waitingCount="0" stopTime="0.00" timeLoss="90.16" rerouteNo="0" devices="tripinfo_westEastTop.12 ssm_westEastTop.12" vType="carCustom" speedFactor="1.17" vaporized=""/>
    <tripinfo id="westEastBottom0.10" depart="153.00" departLane="westJunction_0" departPos="5.10" departSpeed="8.07" departDelay="0.41" arrival="298.00" arrivalLane="junctionEast_1" arrivalPos="492.80" arrivalSpeed="8.28" duration="145.00" routeLength="994.90" waitingTime="0.00" waitingCount="0" stopTime="0.00" timeLoss="25.07" rerouteNo="0" devices="tripinfo_westEastBottom0.10 ssm_westEastBottom0.10" vType="carCustom" speedFactor="0.81" vaporized=""/>
    <tripinfo id="southNorth.13" depart="156.00" departLane="southJunction_1" departPos="5.10" departSpeed="4.00" departDelay="0.72" arrival="303.00" arrivalLane="junctionNorth_0" arrivalPos="492.80" arrivalSpeed="7.66" duration="147.00" routeLength="995.01" waitingTime="0.00" waitingCount="0" stopTime="0.00" timeLoss="26.66" rerouteNo="0" devices="tripinfo_southNorth.13 ssm_southNorth.13" vType="carCustom" speedFactor="1.07" vaporized=""/>
    <tripinfo id="westEastTop.15" depart="104.00" departLane="westJunction_1" departPos="5.10" departSpeed="1.90" departDelay="20.73" arrival="304.00" arrivalLane="junctionEast_0" arrivalPos="492.80" arrivalSpeed="7.65" duration="200.00" routeLength="994.90" waitingTime="0.00" waitingCount="0" stopTime="0.00" timeLoss="80.32" rerouteNo="0" devices="tripinfo_westEastTop.15 ssm_westEastTop.15" vType="carCustom" speedFactor="0.85" vaporized=""/>
    <tripinfo id="westEastBottom0.11" depart="155.00" departLane="westJunction_0" departPos="5.10" departSpeed="8.30" departDelay="0.26" arrival="311.00" arrivalLane="junctionEast_1" arrivalPos="492.80" arrivalSpeed="7.41" duration="156.00" routeLength="994.90" waitingTime="0.00" waitingCount="0" stopTime="0.00" timeLoss="36.28" rerouteNo="0" devices="tripinfo_westEastBottom0.11 ssm_westEastBottom0.11" vType="carCustom" speedFactor="1.09" vaporized=""/>
    <tripinfo id="westEastTop.14" depart="97.00" departLane="westJunction_1" departPos="5.10" departSpeed="1.82" departDelay="15.83" arrival="312.00" arrivalLane="junctionEast_0" arrivalPos="492.80" arrivalSpeed="7.95" duration="215.00" routeLength="994.90" waitingTime="0.00" waitingCount="0" stopTime="0.00" timeLoss="94.95" rerouteNo="0" devices="tripinfo_westEastTop.14 ssm_westEastTop.14" vType="carCustom" speedFactor="1.05" vaporized=""/>
    <tripinfo id="southNorth.14" depart="163.00" departLane="southJunction_1" departPos="5.10" departSpeed="4.01" departDelay="0.33" arrival="313.00" arrivalLane="junctionNorth_0" arrivalPos="492.80" arrivalSpeed="7.78" duration="150.00" routeLength="995.01" waitingTime="0.00" waitingCount="0" stopTime="0.00" timeLoss="30.47" rerouteNo="0" devices="tripinfo_southNorth.14 ssm_southNorth.14" vType="carCustom" speedFactor="1.03" vaporized=""/>
    <tripinfo id="westEastBottom0.12" depart="163.00" departLane="westJunction_0" departPos="5.10" departSpeed="4.79" departDelay="0.16" arrival="320.00" arrivalLane="junctionEast_0" arrivalPos="492.80" arrivalSpeed="7.40" duration="157.00" routeLength="994.90" waitingTime="0.00" waitingCount="0" stopTime="0.00" timeLoss="36.98" rerouteNo="0" devices="tripinfo_westEastBottom0.12 ssm_westEastBottom0.12" vType="carCustom" speedFactor="0.99" vaporized=""/>
    <tripinfo id="southNorth.15" depart="167.00" departLane="southJunction_1" departPos="5.10" departSpeed="2.85" departDelay="1.53" arrival="324.00" arrivalLane="junctionNorth_0" arrivalPos="492.80" arrivalSpeed="7.92" duration="157.00" routeLength="995.01" waitingTime="0.00" waitingCount="0" stopTime="0.00" timeLoss="37.12" rerouteNo="0" devices="tripinfo_southNorth.15 ssm_southNorth.15" vType="carCustom" speedFactor="0.91" vaporized=""/>
    <tripinfo id="westEastTop.16" depart="116.00" departLane="westJunction_1" departPos="5.10" departSpeed="2.35" departDelay="0.17" arrival="325.00" arrivalLane="junctionEast_0" arrivalPos="492.80" arrivalSpeed="7.41" duration="209.00" routeLength="994.90" waitingTime="0.00" waitingCount="0" stopTime="0.00" timeLoss="89.48" rerouteNo="0" devices="tripinfo_westEastTop.16 ssm_westEastTop.16" vType="carCustom" speedFactor="0.99" vaporized=""/>
    <tripinfo id="westEastBottom0.13" depart="169.00" departLane="westJunction_0" departPos="5.10" departSpeed="5.35" departDelay="0.16" arrival="327.00" arrivalLane="junctionEast_1" arrivalPos="492.80" arrivalSpeed="8.27" duration="158.00" routeLength="994.90" waitingTime="0.00" waitingCount="0" stopTime="0.00" timeLoss="38.11" rerouteNo="0" devices="tripinfo_westEastBottom0.13 ssm_westEastBottom0.13" vType="carCustom" speedFactor="0.96" vaporized=""/>
    <tripinfo id="westEastTop.17" depart="126.00" departLane="westJunction_1" departPos="5.10" departSpeed="2.76" departDelay="0.63" arrival="334.00" arrivalLane="junctionEast_0" arrivalPos="492.80" arrivalSpeed="7.77" duration="208.00" routeLength="994.90" waitingTime="1.00" waitingCount="1" stopTime="0.00" timeLoss="88.35" rerouteNo="0" devices="tripinfo_westEastTop.17 ssm_westEastTop.17" vType="carCustom" speedFactor="1.10" vaporized=""/>
    <tripinfo id="southNorth.16" depart="175.00" departLane="southJunction_1" departPos="5.10" departSpeed="3.86" departDelay="0.98" arrival="335.00" arrivalLane="junctionNorth_0" arrivalPos="492.80" arrivalSpeed="7.75" duration="160.00" routeLength="995.01" waitingTime="0.00" waitingCount="0" stopTime="0.00" timeLoss="39.79" rerouteNo="0" devices="tripinfo_southNorth.16 ssm_southNorth.16" vType="carCustom" speedFactor="1.04" vaporized=""/>
    <tripinfo id="westEastTop.18" depart="130.00" departLane="westJunction_1" departPos="5.10" departSpeed="3.77" departDelay="3.99" arrival="340.00" arrivalLane="junctionEast_0" arrivalPos="492.80" arrivalSpeed="7.47" duration="210.00" routeLength="994.90" waitingTime="1.00" waitingCount="1" stopTime="0.00" timeLoss="89.78" rerouteNo="0" devices="tripinfo_westEastTop.18 ssm_westEastTop.18" vType="carCustom" speedFactor="0.98" vaporized=""/>
    <tripinfo id="southEast.9" depart="190.00" departLane="southJunction_0" departPos="5.10" departSpeed="7.67" departDelay="0.21" arrival="344.00" arrivalLane="junctionEast_0" arrivalPos="492.80" arrivalSpeed="7.81" duration="154.00" routeLength="989.53" waitingTime="0.00" waitingCount="0" stopTime="0.00" timeLoss="34.59" rerouteNo="0" devices="tripinfo_southEast.9 ssm_southEast.9" vType="carCustom" speedFactor="1.02" vaporized=""/>
    <tripinfo id="southNorth.17" depart="179.00" departLane="southJunction_1" departPos="5.10" departSpeed="3.05" departDelay="2.20" arrival="345.00" arrivalLane="junctionNorth_0" arrivalPos="492.80" arrivalSpeed="7.84" duration="166.00" routeLength="995.01" waitingTime="0.00" waitingCount="0" stopTime="0.00" timeLoss="46.29" rerouteNo="0" devices="tripinfo_southNorth.17 ssm_southNorth.17" vType="carCustom" speedFactor="0.99" vaporized=""/>
    <tripinfo id="westEastTop.20" depart="154.00" departLane="westJunction_1" departPos="5.10" departSpeed="2.68" departDelay="0.39" arrival="351.00" arrivalLane="junctionEast_1" arrivalPos="492.80" arrivalSpeed="7.61" duration="197.00" routeLength="994.90" waitingTime="1.00" waitingCount="1" stopTime="0.00" timeLoss="77.52" rerouteNo="0" devices="tripinfo_westEastTop.20 ssm_westEastTop.20" vType="carCustom" speedFactor="0.88" vaporized=""/>
    <tripinfo id="southEast.10" depart="193.00" departLane="southJunction_0" departPos="5.10" departSpeed="5.53" departDelay="2.80" arrival="351.00" arrivalLane="junctionEast_0" arrivalPos="492.80" arrivalSpeed="7.55" duration="158.00" routeLength="989.53" waitingTime="0.00" waitingCount="0" stopTime="0.00" timeLoss="38.52" rerouteNo="0" devices="tripinfo_southEast.10 ssm_southEast.10" vType="carCustom" speedFactor="0.93" vaporized=""/>