<?xml version="1.0" encoding="UTF-8"?>

<!-- generated on 2025-04-29 05:50:41 by Eclipse SUMO sumo Version 1.20.0
<configuration xmlns:xsi="http://www.w3.org/2001/XMLSchema-instance" xsi:noNamespaceSchemaLocation="http://sumo.dlr.de/xsd/sumoConfiguration.xsd">

    <input>
        <net-file value="nets/2lane_unprotected_right/2lane_unprotected_right.net.xml"/>
        <route-files value="nets/2lane_unprotected_right/2lane_unprotected_right.rou.xml"/>
    </input>

    <output>
        <tripinfo-output value="traces/transs50f0.5_s50_f1_random/0081_tripinfo.xml"/>
        <collision-output value="traces/transs50f0.5_s50_f1_random/0081_collisions.xml"/>
        <statistic-output value="traces/transs50f0.5_s50_f1_random/0081_statistics.xml"/>
    </output>

    <processing>
        <collision.action value="teleport"/>
        <collision.check-junctions value="true"/>
        <time-to-teleport value="-1"/>
        <waiting-time-memory value="1000"/>
        <max-depart-delay value="-1"/>
        <default.speeddev value="0.1"/>
    </processing>

    <report>
        <no-warnings value="true"/>
    </report>

    <ssm_device>
        <device.ssm.probability value="1.0"/>
        <device.ssm.measures value="BR"/>
        <device.ssm.file value="/Users/finn/Code/CausalKnowledgeTransfer-4-SafeRL/traces/transs50f0.5_s50_f1_random/0081_ssm.xml"/>
    </ssm_device>

    <traci_server>
        <remote-port value="63409"/>
    </traci_server>

    <random_number>
        <random value="true"/>
    </random_number>

</configuration>
-->

<tripinfos xmlns:xsi="http://www.w3.org/2001/XMLSchema-instance" xsi:noNamespaceSchemaLocation="http://sumo.dlr.de/xsd/tripinfo_file.xsd">
    <tripinfo id="southNorth.0" depart="1.00" departLane="southJunction_1" departPos="5.10" departSpeed="26.39" departDelay="0.33" arrival="40.00" arrivalLane="junctionNorth_0" arrivalPos="492.80" arrivalSpeed="27.60" duration="39.00" routeLength="995.01" waitingTime="0.00" waitingCount="0" stopTime="0.00" timeLoss="2.44" rerouteNo="0" devices="tripinfo_southNorth.0 ssm_southNorth.0" vType="carCustom" speedFactor="1.02" vaporized=""/>
    <tripinfo id="westEastTop.0" depart="3.00" departLane="westJunction_1" departPos="5.10" departSpeed="27.78" departDelay="0.20" arrival="41.00" arrivalLane="junctionEast_1" arrivalPos="492.80" arrivalSpeed="26.54" duration="38.00" routeLength="994.90" waitingTime="0.00" waitingCount="0" stopTime="0.00" timeLoss="2.02" rerouteNo="0" devices="tripinfo_westEastTop.0 ssm_westEastTop.0" vType="carCustom" speedFactor="1.02" vaporized=""/>
    <tripinfo id="westEastTop.1" depart="12.00" departLane="westJunction_1" departPos="5.10" departSpeed="27.03" departDelay="6.92" arrival="54.00" arrivalLane="junctionEast_1" arrivalPos="492.80" arrivalSpeed="26.99" duration="42.00" routeLength="994.90" waitingTime="0.00" waitingCount="0" stopTime="0.00" timeLoss="6.01" rerouteNo="0" devices="tripinfo_westEastTop.1 ssm_westEastTop.1" vType="carCustom" speedFactor="1.03" vaporized=""/>
    <tripinfo id="southEast.0" depart="4.00" departLane="southJunction_0" departPos="5.10" departSpeed="26.39" departDelay="0.61" arrival="56.00" arrivalLane="junctionEast_0" arrivalPos="492.80" arrivalSpeed="27.65" duration="52.00" routeLength="989.53" waitingTime="0.00" waitingCount="0" stopTime="0.00" timeLoss="15.64" rerouteNo="0" devices="tripinfo_southEast.0 ssm_southEast.0" vType="carCustom" speedFactor="1.13" vaporized=""/>
    <tripinfo id="westEastTop.2" depart="14.00" departLane="westJunction_1" departPos="5.10" departSpeed="24.39" departDelay="8.05" arrival="65.00" arrivalLane="junctionEast_1" arrivalPos="492.80" arrivalSpeed="27.55" duration="51.00" routeLength="994.90" waitingTime="0.00" waitingCount="0" stopTime="0.00" timeLoss="15.17" rerouteNo="0" devices="tripinfo_westEastTop.2 ssm_westEastTop.2" vType="carCustom" speedFactor="0.91" vaporized=""/>
    <tripinfo id="southEast.1" depart="6.00" departLane="southJunction_0" departPos="5.10" departSpeed="26.12" departDelay="1.56" arrival="67.00" arrivalLane="junctionEast_0" arrivalPos="492.80" arrivalSpeed="26.87" duration="61.00" routeLength="989.53" waitingTime="0.00" waitingCount="0" stopTime="0.00" timeLoss="24.38" rerouteNo="0" devices="tripinfo_southEast.1 ssm_southEast.1" vType="carCustom" speedFactor="1.03" vaporized=""/>
    <tripinfo id="southNorth.1" depart="12.00" departLane="southJunction_1" departPos="5.10" departSpeed="24.55" departDelay="0.93" arrival="70.00" arrivalLane="junctionNorth_0" arrivalPos="492.80" arrivalSpeed="27.69" duration="58.00" routeLength="995.01" waitingTime="4.00" waitingCount="1" stopTime="0.00" timeLoss="22.04" rerouteNo="0" devices="tripinfo_southNorth.1 ssm_southNorth.1" vType="carCustom" speedFactor="1.04" vaporized=""/>
    <tripinfo id="westEastBottom0.0" depart="21.00" departLane="westJunction_0" departPos="5.10" departSpeed="26.39" departDelay="0.31" arrival="76.00" arrivalLane="junctionEast_1" arrivalPos="492.80" arrivalSpeed="27.62" duration="55.00" routeLength="994.90" waitingTime="5.00" waitingCount="1" stopTime="0.00" timeLoss="18.87" rerouteNo="0" devices="tripinfo_westEastBottom0.0 ssm_westEastBottom0.0" vType="carCustom" speedFactor="0.92" vaporized=""/>
    <tripinfo id="southEast.2" depart="10.00" departLane="southJunction_0" departPos="5.10" departSpeed="20.25" departDelay="0.11" arrival="78.00" arrivalLane="junctionEast_0" arrivalPos="492.80" arrivalSpeed="26.63" duration="68.00" routeLength="989.53" waitingTime="0.00" waitingCount="0" stopTime="0.00" timeLoss="30.97" rerouteNo="0" devices="tripinfo_southEast.2 ssm_southEast.2" vType="carCustom" speedFactor="1.08" vaporized=""/>
    <tripinfo id="southNorth.2" depart="28.00" departLane="southJunction_1" departPos="5.10" departSpeed="19.91" departDelay="0.10" arrival="82.00" arrivalLane="junctionNorth_0" arrivalPos="492.80" arrivalSpeed="26.97" duration="54.00" routeLength="995.01" waitingTime="0.00" waitingCount="0" stopTime="0.00" timeLoss="17.64" rerouteNo="0" devices="tripinfo_southNorth.2 ssm_southNorth.2" vType="carCustom" speedFactor="0.82" vaporized=""/>
    <tripinfo id="westEastBottom0.1" depart="24.00" departLane="westJunction_0" departPos="5.10" departSpeed="25.39" departDelay="0.43" arrival="85.00" arrivalLane="junctionEast_1" arrivalPos="492.80" arrivalSpeed="27.54" duration="61.00" routeLength="994.90" waitingTime="0.00" waitingCount="0" stopTime="0.00" timeLoss="24.29" rerouteNo="0" devices="tripinfo_westEastBottom0.1 ssm_westEastBottom0.1" vType="carCustom" speedFactor="0.89" vaporized=""/>
    <tripinfo id="westEastBottom0.2" depart="26.00" departLane="westJunction_0" departPos="5.10" departSpeed="22.45" departDelay="0.93" arrival="93.00" arrivalLane="junctionEast_1" arrivalPos="492.80" arrivalSpeed="26.54" duration="67.00" routeLength="994.90" waitingTime="0.00" waitingCount="0" stopTime="0.00" timeLoss="30.40" rerouteNo="0" devices="tripinfo_westEastBottom0.2 ssm_westEastBottom0.2" vType="carCustom" speedFactor="1.05" vaporized=""/>
    <tripinfo id="southEast.3" depart="30.00" departLane="southJunction_0" departPos="5.10" departSpeed="11.75" departDelay="0.82" arrival="95.00" arrivalLane="junctionEast_0" arrivalPos="492.80" arrivalSpeed="27.78" duration="65.00" routeLength="989.53" waitingTime="0.00" waitingCount="0" stopTime="0.00" timeLoss="27.84" rerouteNo="0" devices="tripinfo_southEast.3 ssm_southEast.3" vType="carCustom" speedFactor="1.00" vaporized=""/>
    <tripinfo id="westEastBottom0.4" depart="66.00" departLane="westJunction_0" departPos="5.10" departSpeed="13.91" departDelay="0.58" arrival="96.00" arrivalLane="junctionEast_0" arrivalPos="492.80" arrivalSpeed="14.51" duration="30.00" routeLength="994.90" waitingTime="0.00" waitingCount="0" stopTime="0.00" timeLoss="11.66" rerouteNo="0" devices="tripinfo_westEastBottom0.4 ssm_westEastBottom0.4" vType="carCustom" speedFactor="0.95" vaporized="teleport"/>
    <tripinfo id="westEastTop.3" depart="20.00" departLane="westJunction_1" departPos="5.10" departSpeed="15.59" departDelay="0.85" arrival="100.00" arrivalLane="junctionEast_1" arrivalPos="492.80" arrivalSpeed="27.63" duration="80.00" routeLength="994.90" waitingTime="4.00" waitingCount="1" stopTime="0.00" timeLoss="43.96" rerouteNo="0" devices="tripinfo_westEastTop.3 ssm_westEastTop.3" vType="carCustom" speedFactor="1.00" vaporized=""/>
    <tripinfo id="southNorth.3" depart="36.00" departLane="southJunction_1" departPos="5.10" departSpeed="20.77" departDelay="0.30" arrival="100.00" arrivalLane="junctionNorth_0" arrivalPos="492.80" arrivalSpeed="27.00" duration="64.00" routeLength="995.01" waitingTime="1.00" waitingCount="1" stopTime="0.00" timeLoss="28.01" rerouteNo="0" devices="tripinfo_southNorth.3 ssm_southNorth.3" vType="carCustom" speedFactor="1.02" vaporized=""/>
    <tripinfo id="westEastTop.4" depart="22.00" departLane="westJunction_1" departPos="5.10" departSpeed="13.54" departDelay="1.17" arrival="108.00" arrivalLane="junctionEast_1" arrivalPos="492.80" arrivalSpeed="26.89" duration="86.00" routeLength="994.90" waitingTime="0.00" waitingCount="0" stopTime="0.00" timeLoss="49.39" rerouteNo="0" devices="tripinfo_westEastTop.4 ssm_westEastTop.4" vType="carCustom" speedFactor="1.03" vaporized=""/>
    <tripinfo id="westEastBottom0.3" depart="42.00" departLane="westJunction_0" departPos="5.10" departSpeed="9.86" departDelay="0.55" arrival="108.00" arrivalLane="junctionEast_0" arrivalPos="492.80" arrivalSpeed="26.57" duration="66.00" routeLength="994.90" waitingTime="0.00" waitingCount="0" stopTime="0.00" timeLoss="30.15" rerouteNo="0" devices="tripinfo_westEastBottom0.3 ssm_westEastBottom0.3" vType="carCustom" speedFactor="1.14" vaporized=""/>
    <tripinfo id="westEastTop.5" depart="24.00" departLane="westJunction_1" departPos="5.10" departSpeed="10.60" departDelay="1.52" arrival="115.00" arrivalLane="junctionEast_1" arrivalPos="492.80" arrivalSpeed="26.49" duration="91.00" routeLength="994.90" waitingTime="0.00" waitingCount="0" stopTime="0.00" timeLoss="55.05" rerouteNo="0" devices="tripinfo_westEastTop.5 ssm_westEastTop.5" vType="carCustom" speedFactor="0.93" vaporized=""/>
    <tripinfo id="southEast.4" depart="64.00" departLane="southJunction_0" departPos="5.10" departSpeed="7.74" departDelay="0.34" arrival="120.00" arrivalLane="junctionEast_0" arrivalPos="492.80" arrivalSpeed="27.58" duration="56.00" routeLength="989.53" waitingTime="0.00" waitingCount="0" stopTime="0.00" timeLoss="18.49" rerouteNo="0" devices="tripinfo_southEast.4 ssm_southEast.4" vType="carCustom" speedFactor="1.08" vaporized=""/>
    <tripinfo id="westEastTop.6" depart="26.00" departLane="westJunction_1" departPos="5.10" departSpeed="7.67" departDelay="3.34" arrival="123.00" arrivalLane="junctionEast_1" arrivalPos="492.80" arrivalSpeed="27.66" duration="97.00" routeLength="994.90" waitingTime="0.00" waitingCount="0" stopTime="0.00" timeLoss="60.40" rerouteNo="0" devices="tripinfo_westEastTop.6 ssm_westEastTop.6" vType="carCustom" speedFactor="0.98" vaporized=""/>
    <tripinfo id="southNorth.4" depart="60.00" departLane="southJunction_1" departPos="5.10" departSpeed="12.76" departDelay="0.97" arrival="123.00" arrivalLane="junctionNorth_0" arrivalPos="492.80" arrivalSpeed="27.67" duration="63.00" routeLength="995.01" waitingTime="6.00" waitingCount="1" stopTime="0.00" timeLoss="27.13" rerouteNo="0" devices="tripinfo_southNorth.4 ssm_southNorth.4" vType="carCustom" speedFactor="1.02" vaporized=""/>
    <tripinfo id="westEastTop.7" depart="33.00" departLane="westJunction_1" departPos="5.10" departSpeed="3.72" departDelay="0.49" arrival="130.00" arrivalLane="junctionEast_1" arrivalPos="492.80" arrivalSpeed="26.64" duration="97.00" routeLength="994.90" waitingTime="0.00" waitingCount="0" stopTime="0.00" timeLoss="61.18" rerouteNo="0" devices="tripinfo_westEastTop.7 ssm_westEastTop.7" vType="carCustom" speedFactor="1.07" vaporized=""/>
    <tripinfo id="westEastBottom0.5" depart="80.00" departLane="westJunction_0" departPos="5.10" departSpeed="17.48" departDelay="0.75" arrival="138.00" arrivalLane="junctionEast_1" arrivalPos="492.80" arrivalSpeed="27.63" duration="58.00" routeLength="994.90" waitingTime="0.00" waitingCount="0" stopTime="0.00" timeLoss="21.42" rerouteNo="0" devices="tripinfo_westEastBottom0.5 ssm_westEastBottom0.5" vType="carCustom" speedFactor="0.67" vaporized=""/>
    <tripinfo id="southNorth.5" depart="68.00" departLane="southJunction_1" departPos="5.10" departSpeed="20.78" departDelay="0.15" arrival="139.00" arrivalLane="junctionNorth_0" arrivalPos="492.80" arrivalSpeed="27.56" duration="71.00" routeLength="995.01" waitingTime="6.00" waitingCount="1" stopTime="0.00" timeLoss="35.03" rerouteNo="0" devices="tripinfo_southNorth.5 ssm_southNorth.5" vType="carCustom" speedFactor="1.09" vaporized=""/>
    <tripinfo id="westEastTop.8" depart="36.00" departLane="westJunction_1" departPos="5.10" departSpeed="5.20" departDelay="3.26" arrival="140.00" arrivalLane="junctionEast_0" arrivalPos="492.80" arrivalSpeed="27.49" duration="104.00" routeLength="994.90" waitingTime="0.00" waitingCount="0" stopTime="0.00" timeLoss="67.38" rerouteNo="0" devices="tripinfo_westEastTop.8 ssm_westEastTop.8" vType="carCustom" speedFactor="0.99" vaporized=""/>
    <tripinfo id="westEastTop.9" depart="40.00" departLane="westJunction_1" departPos="5.10" departSpeed="3.37" departDelay="1.54" arrival="146.00" arrivalLane="junctionEast_1" arrivalPos="492.80" arrivalSpeed="26.78" duration="106.00" routeLength="994.90" waitingTime="0.00" waitingCount="0" stopTime="0.00" timeLoss="69.26" rerouteNo="0" devices="tripinfo_westEastTop.9 ssm_westEastTop.9" vType="carCustom" speedFactor="0.89" vaporized=""/>
    <tripinfo id="southEast.5" depart="82.00" departLane="southJunction_0" departPos="5.10" departSpeed="20.15" departDelay="0.05" arrival="148.00" arrivalLane="junctionEast_0" arrivalPos="492.80" arrivalSpeed="26.51" duration="66.00" routeLength="989.53" waitingTime="0.00" waitingCount="0" stopTime="0.00" timeLoss="28.35" rerouteNo="0" devices="tripinfo_southEast.5 ssm_southEast.5" vType="carCustom" speedFactor="0.83" vaporized=""/>
    <tripinfo id="southNorth.6" depart="78.00" departLane="southJunction_1" departPos="5.10" departSpeed="15.22" departDelay="0.44" arrival="151.00" arrivalLane="junctionNorth_0" arrivalPos="492.80" arrivalSpeed="26.89" duration="73.00" routeLength="995.01" waitingTime="2.00" waitingCount="1" stopTime="0.00" timeLoss="36.78" rerouteNo="0" devices="tripinfo_southNorth.6 ssm_southNorth.6" vType="carCustom" speedFactor="0.96" vaporized=""/>
    <tripinfo id="westEastTop.10" depart="45.00" departLane="westJunction_1" departPos="5.10" departSpeed="2.59" departDelay="5.42" arrival="153.00" arrivalLane="junctionEast_1" arrivalPos="492.80" arrivalSpeed="26.80" duration="108.00" routeLength="994.90" waitingTime="0.00" waitingCount="0" stopTime="0.00" timeLoss="72.17" rerouteNo="0" devices="tripinfo_westEastTop.10 ssm_westEastTop.10" vType="carCustom" speedFactor="1.04" vaporized=""/>
    <tripinfo id="westEastBottom0.6" depart="83.00" departLane="westJunction_0" departPos="5.10" departSpeed="16.38" departDelay="0.14" arrival="156.00" arrivalLane="junctionEast_0" arrivalPos="492.80" arrivalSpeed="27.06" duration="73.00" routeLength="994.90" waitingTime="0.00" waitingCount="0" stopTime="0.00" timeLoss="36.44" rerouteNo="0" devices="tripinfo_westEastBottom0.6 ssm_westEastBottom0.6" vType="carCustom" speedFactor="1.05" vaporized=""/>
    <tripinfo id="westEastTop.11" depart="58.00" departLane="westJunction_1" departPos="5.10" departSpeed="5.33" departDelay="0.74" arrival="162.00" arrivalLane="junctionEast_1" arrivalPos="492.80" arrivalSpeed="27.76" duration="104.00" routeLength="994.90" waitingTime="0.00" waitingCount="0" stopTime="0.00" timeLoss="67.26" rerouteNo="0" devices="tripinfo_westEastTop.11 ssm_westEastTop.11" vType="carCustom" speedFactor="1.01" vaporized=""/>
    <tripinfo id="southEast.6" depart="85.00" departLane="southJunction_0" departPos="5.10" departSpeed="19.93" departDelay="0.35" arrival="164.00" arrivalLane="junctionEast_0" arrivalPos="492.80" arrivalSpeed="26.68" duration="79.00" routeLength="989.53" waitingTime="0.00" waitingCount="0" stopTime="0.00" timeLoss="41.91" rerouteNo="0" devices="tripinfo_southEast.6 ssm_southEast.6" vType="carCustom" speedFactor="0.93" vaporized=""/>
    <tripinfo id="westEastTop.12" depart="70.00" departLane="westJunction_1" departPos="5.10" departSpeed="6.16" departDelay="0.20" arrival="170.00" arrivalLane="junctionEast_1" arrivalPos="492.80" arrivalSpeed="27.52" duration="100.00" routeLength="994.90" waitingTime="0.00" waitingCount="0" stopTime="0.00" timeLoss="63.35" rerouteNo="0" devices="tripinfo_westEastTop.12 ssm_westEastTop.12" vType="carCustom" speedFactor="1.08" vaporized=""/>
    <tripinfo id="southNorth.7" depart="92.00" departLane="southJunction_1" departPos="5.10" departSpeed="14.63" departDelay="0.95" arrival="171.00" arrivalLane="junctionNorth_0" arrivalPos="492.80" arrivalSpeed="26.71" duration="79.00" routeLength="995.01" waitingTime="11.00" waitingCount="1" stopTime="0.00" timeLoss="42.38" rerouteNo="0" devices="tripinfo_southNorth.7 ssm_southNorth.7" vType="carCustom" speedFactor="0.86" vaporized=""/>
    <tripinfo id="westEastBottom0.7" depart="94.00" departLane="westJunction_0" departPos="5.10" departSpeed="12.51" departDelay="0.61" arrival="171.00" arrivalLane="junctionEast_0" arrivalPos="492.80" arrivalSpeed="26.74" duration="77.00" routeLength="994.90" waitingTime="0.00" waitingCount="0" stopTime="0.00" timeLoss="40.90" rerouteNo="0" devices="tripinfo_westEastBottom0.7 ssm_westEastBottom0.7" vType="carCustom" speedFactor="0.84" vaporized=""/>
    <tripinfo id="westEastTop.13" depart="82.00" departLane="westJunction_1" departPos="5.10" departSpeed="6.88" departDelay="0.59" arrival="177.00" arrivalLane="junctionEast_1" arrivalPos="492.80" arrivalSpeed="27.68" duration="95.00" routeLength="994.90" waitingTime="0.00" waitingCount="0" stopTime="0.00" timeLoss="59.05" rerouteNo="0" devices="tripinfo_westEastTop.13 ssm_westEastTop.13" vType="carCustom" speedFactor="0.98" vaporized=""/>
    <tripinfo id="southEast.7" depart="92.00" departLane="southJunction_0" departPos="5.10" departSpeed="11.02" departDelay="0.09" arrival="179.00" arrivalLane="junctionEast_0" arrivalPos="492.80" arrivalSpeed="27.73" duration="87.00" routeLength="989.53" waitingTime="0.00" waitingCount="0" stopTime="0.00" timeLoss="49.20" rerouteNo="0" devices="tripinfo_southEast.7 ssm_southEast.7" vType="carCustom" speedFactor="0.92" vaporized=""/>
    <tripinfo id="southNorth.8" depart="104.00" departLane="southJunction_1" departPos="5.10" departSpeed="15.02" departDelay="0.07" arrival="182.00" arrivalLane="junctionNorth_0" arrivalPos="492.80" arrivalSpeed="27.51" duration="78.00" routeLength="995.01" waitingTime="3.00" waitingCount="1" stopTime="0.00" timeLoss="41.27" rerouteNo="0" devices="tripinfo_southNorth.8 ssm_southNorth.8" vType="carCustom" speedFactor="0.99" vaporized=""/>
    <tripinfo id="westEastTop.14" depart="84.00" departLane="westJunction_1" departPos="5.10" departSpeed="10.42" departDelay="1.71" arrival="185.00" arrivalLane="junctionEast_1" arrivalPos="492.80" arrivalSpeed="27.49" duration="101.00" routeLength="994.90" waitingTime="0.00" waitingCount="0" stopTime="0.00" timeLoss="64.86" rerouteNo="0" devices="tripinfo_westEastTop.14 ssm_westEastTop.14" vType="carCustom" speedFactor="0.92" vaporized=""/>
    <tripinfo id="southEast.8" depart="97.00" departLane="southJunction_0" departPos="5.10" departSpeed="11.97" departDelay="0.07" arrival="186.00" arrivalLane="junctionEast_0" arrivalPos="492.80" arrivalSpeed="26.77" duration="89.00" routeLength="989.53" waitingTime="0.00" waitingCount="0" stopTime="0.00" timeLoss="51.20" rerouteNo="0" devices="tripinfo_southEast.8 ssm_southEast.8" vType="carCustom" speedFactor="0.83" vaporized=""/>
    <tripinfo id="southNorth.9" depart="130.00" departLane="southJunction_1" departPos="5.10" departSpeed="11.22" departDelay="0.43" arrival="192.00" arrivalLane="junctionNorth_0" arrivalPos="492.80" arrivalSpeed="27.19" duration="62.00" routeLength="995.01" waitingTime="0.00" waitingCount="0" stopTime="0.00" timeLoss="25.28" rerouteNo="0" devices="tripinfo_southNorth.9 ssm_southNorth.9" vType="carCustom" speedFactor="0.92" vaporized=""/>
    <tripinfo id="westEastTop.15" depart="86.00" departLane="westJunction_1" departPos="5.10" departSpeed="7.49" departDelay="3.45" arrival="193.00" arrivalLane="junctionEast_1" arrivalPos="492.80" arrivalSpeed="27.77" duration="107.00" routeLength="994.90" waitingTime="1.00" waitingCount="1" stopTime="0.00" timeLoss="70.99" rerouteNo="0" devices="tripinfo_westEastTop.15 ssm_westEastTop.15" vType="carCustom" speedFactor="1.08" vaporized=""/>
    <tripinfo id="westEastBottom0.8" depart="121.00" departLane="westJunction_0" departPos="5.10" departSpeed="12.67" departDelay="0.56" arrival="193.00" arrivalLane="junctionEast_0" arrivalPos="492.80" arrivalSpeed="27.42" duration="72.00" routeLength="994.90" waitingTime="0.00" waitingCount="0" stopTime="0.00" timeLoss="35.88" rerouteNo="0" devices="tripinfo_westEastBottom0.8 ssm_westEastBottom0.8" vType="carCustom" speedFactor="0.88" vaporized=""/>
    <tripinfo id="southEast.9" depart="113.00" departLane="southJunction_0" departPos="5.10" departSpeed="11.46" departDelay="0.98" arrival="200.00" arrivalLane="junctionEast_0" arrivalPos="492.80" arrivalSpeed="27.35" duration="87.00" routeLength="989.53" waitingTime="0.00" waitingCount="0" stopTime="0.00" timeLoss="49.91" rerouteNo="0" devices="tripinfo_southEast.9 ssm_southEast.9" vType="carCustom" speedFactor="1.14" vaporized=""/>
    <tripinfo id="southEast.10" depart="127.00" departLane="southJunction_0" departPos="5.10" departSpeed="12.92" departDelay="0.09" arrival="201.00" arrivalLane="junctionEast_1" arrivalPos="492.80" arrivalSpeed="27.34" duration="74.00" routeLength="989.53" waitingTime="0.00" waitingCount="0" stopTime="0.00" timeLoss="36.52" rerouteNo="0" devices="tripinfo_southEast.10 ssm_southEast.10" vType="carCustom" speedFactor="1.03" vaporized=""/>
    <tripinfo id="southNorth.10" depart="132.00" departLane="southJunction_1" departPos="5.10" departSpeed="15.69" departDelay="2.19" arrival="202.00" arrivalLane="junctionNorth_0" arrivalPos="492.80" arrivalSpeed="26.89" duration="70.00" routeLength="995.01" waitingTime="0.00" waitingCount="0" stopTime="0.00" timeLoss="33.46" rerouteNo="0" devices="tripinfo_southNorth.10 ssm_southNorth.10" vType="carCustom" speedFactor="0.96" vaporized=""/>
    <tripinfo id="southEast.11" depart="129.00" departLane="southJunction_0" departPos="5.10" departSpeed="16.02" departDelay="0.33" arrival="208.00" arrivalLane="junctionEast_0" arrivalPos="492.80" arrivalSpeed="27.59" duration="79.00" routeLength="989.53" waitingTime="0.00" waitingCount="0" stopTime="0.00" timeLoss="41.59" rerouteNo="0" devices="tripinfo_southEast.11 ssm_southEast.11" vType="carCustom" speedFactor="1.09" vaporized=""/>
    <tripinfo id="westEastTop.16" depart="89.00" departLane="westJunction_1" departPos="5.10" departSpeed="3.66" departDelay="5.35" arrival="209.00" arrivalLane="junctionEast_1" arrivalPos="492.80" arrivalSpeed="26.70" duration="120.00" routeLength="994.90" waitingTime="2.00" waitingCount="1" stopTime="0.00" timeLoss="83.45" rerouteNo="0" devices="tripinfo_westEastTop.16 ssm_westEastTop.16" vType="carCustom" speedFactor="0.95" vaporized=""/>
    <tripinfo id="southNorth.11" depart="136.00" departLane="southJunction_1" departPos="5.10" departSpeed="10.69" departDelay="0.48" arrival="212.00" arrivalLane="junctionNorth_0" arrivalPos="492.80" arrivalSpeed="27.08" duration="76.00" routeLength="995.01" waitingTime="0.00" waitingCount="0" stopTime="0.00" timeLoss="39.71" rerouteNo="0" devices="tripinfo_southNorth.11 ssm_southNorth.11" vType="carCustom" speedFactor="1.00" vaporized=""/>
    <tripinfo id="westEastTop.17" depart="93.00" departLane="westJunction_1" departPos="5.10" departSpeed="3.11" departDelay="6.61" arrival="216.00" arrivalLane="junctionEast_1" arrivalPos="492.80" arrivalSpeed="26.57" duration="123.00" routeLength="994.90" waitingTime="3.00" waitingCount="1" stopTime="0.00" timeLoss="87.03" rerouteNo="0" devices="tripinfo_westEastTop.17 ssm_westEastTop.17" vType="carCustom" speedFactor="1.15" vaporized=""/>
    <tripinfo id="westEastBottom0.9" depart="146.00" departLane="westJunction_0" departPos="5.10" departSpeed="15.23" departDelay="0.19" arrival="216.00" arrivalLane="junctionEast_0" arrivalPos="492.80" arrivalSpeed="27.69" duration="70.00" routeLength="994.90" waitingTime="5.00" waitingCount="1" stopTime="0.00" timeLoss="33.47" rerouteNo="0" devices="tripinfo_westEastBottom0.9 ssm_westEastBottom0.9" vType="carCustom" speedFactor="1.11" vaporized=""/>
    <tripinfo id="southNorth.12" depart="141.00" departLane="southJunction_1" departPos="5.10" departSpeed="8.46" departDelay="0.74" arrival="223.00" arrivalLane="junctionNorth_0" arrivalPos="492.80" arrivalSpeed="27.77" duration="82.00" routeLength="995.01" waitingTime="0.00" waitingCount="0" stopTime="0.00" timeLoss="45.93" rerouteNo="0" devices="tripinfo_southNorth.12 ssm_southNorth.12" vType="carCustom" speedFactor="1.04" vaporized=""/>
    <tripinfo id="westEastTop.18" depart="101.00" departLane="westJunction_1" departPos="5.10" departSpeed="4.04" departDelay="0.40" arrival="224.00" arrivalLane="junctionEast_1" arrivalPos="492.80" arrivalSpeed="27.14" duration="123.00" routeLength="994.90" waitingTime="0.00" waitingCount="0" stopTime="0.00" timeLoss="86.57" rerouteNo="0" devices="tripinfo_westEastTop.18 ssm_westEastTop.18" vType="carCustom" speedFactor="1.14" vaporized=""/>
    <tripinfo id="southEast.12" depart="141.00" departLane="southJunction_0" departPos="5.10" departSpeed="10.90" departDelay="0.88" arrival="224.00" arrivalLane="junctionEast_0" arrivalPos="492.80" arrivalSpeed="27.45" duration="83.00" routeLength="989.53" waitingTime="0.00" waitingCount="0" stopTime="0.00" timeLoss="45.97" rerouteNo="0" devices="tripinfo_southEast.12 ssm_southEast.12" vType="carCustom" speedFactor="0.85" vaporized=""/>
    <tripinfo id="westEastBottom0.12" depart="179.00" departLane="westJunction_0" departPos="5.10" departSpeed="17.76" departDelay="1.42" arrival="226.00" arrivalLane="junctionEast_0" arrivalPos="492.80" arrivalSpeed="5.51" duration="47.00" routeLength="994.90" waitingTime="0.00" waitingCount="0" stopTime="0.00" timeLoss="28.75" rerouteNo="0" devices="tripinfo_westEastBottom0.12 ssm_westEastBottom0.12" vType="carCustom" speedFactor="0.98" vaporized="teleport"/>
    <tripinfo id="westEastTop.19" depart="108.00" departLane="westJunction_1" departPos="5.10" departSpeed="3.84" departDelay="0.42" arrival="231.00" arrivalLane="junctionEast_1" arrivalPos="492.80" arrivalSpeed="26.90" duration="123.00" routeLength="994.90" waitingTime="0.00" waitingCount="0" stopTime="0.00" timeLoss="86.95" rerouteNo="0" devices="tripinfo_westEastTop.19 ssm_westEastTop.19" vType="carCustom" speedFactor="1.10" vaporized=""/>
    <tripinfo id="westEastBottom0.10" depart="160.00" departLane="westJunction_0" departPos="5.10" departSpeed="18.16" departDelay="0.53" arrival="232.00" arrivalLane="junctionEast_0" arrivalPos="492.80" arrivalSpeed="27.15" duration="72.00" routeLength="994.90" waitingTime="0.00" waitingCount="0" stopTime="0.00" timeLoss="35.23" rerouteNo="0" devices="tripinfo_westEastBottom0.10 ssm_westEastBottom0.10" vType="carCustom" speedFactor="0.94" vaporized=""/>
    <tripinfo id="southNorth.13" depart="144.00" departLane="southJunction_1" departPos="5.10" departSpeed="7.62" departDelay="3.23" arrival="234.00" arrivalLane="junctionNorth_0" arrivalPos="492.80" arrivalSpeed="27.66" duration="90.00" routeLength="995.01" waitingTime="1.00" waitingCount="1" stopTime="0.00" timeLoss="53.45" rerouteNo="0" devices="tripinfo_southNorth.13 ssm_southNorth.13" vType="carCustom" speedFactor="1.29" vaporized=""/>
    <tripinfo id="westEastTop.20" depart="111.00" departLane="westJunction_1" departPos="5.10" departSpeed="4.10" departDelay="2.86" arrival="238.00" arrivalLane="junctionEast_1" arrivalPos="492.80" arrivalSpeed="27.48" duration="127.00" routeLength="994.90" waitingTime="0.00" waitingCount="0" stopTime="0.00" timeLoss="91.05" rerouteNo="0" devices="tripinfo_westEastTop.20 ssm_westEastTop.20" vType="carCustom" speedFactor="1.00" vaporized=""/>
    <tripinfo id="southEast.13" depart="143.00" departLane="southJunction_0" departPos="5.10" departSpeed="12.23" departDelay="2.00" arrival="239.00" arrivalLane="junctionEast_0" arrivalPos="492.80" arrivalSpeed="27.12" duration="96.00" routeLength="989.53" waitingTime="0.00" waitingCount="0" stopTime="0.00" timeLoss="59.12" rerouteNo="0" devices="tripinfo_southEast.13 ssm_southEast.13" vType="carCustom" speedFactor="1.05" vaporized=""/>
    <tripinfo id="southNorth.14" depart="147.00" departLane="southJunction_1" departPos="5.10" departSpeed="4.39" departDelay="6.05" arrival="245.00" arrivalLane="junctionNorth_0" arrivalPos="492.80" arrivalSpeed="27.72" duration="98.00" routeLength="995.01" waitingTime="2.00" waitingCount="1" stopTime="0.00" timeLoss="61.30" rerouteNo="0" devices="tripinfo_southNorth.14 ssm_southNorth.14" vType="carCustom" speedFactor="0.79" vaporized=""/>
    <tripinfo id="westEastTop.21" depart="128.00" departLane="westJunction_1" departPos="5.10" departSpeed="5.24" departDelay="0.00" arrival="246.00" arrivalLane="junctionEast_1" arrivalPos="492.80" arrivalSpeed="27.06" duration="118.00" routeLength="994.90" waitingTime="0.00" waitingCount="0" stopTime="0.00" timeLoss="81.46" rerouteNo="0" devices="tripinfo_westEastTop.21 ssm_westEastTop.21" vType="carCustom" speedFactor="0.93" vaporized=""/>