<?xml version="1.0" encoding="UTF-8"?>

<!-- generated on 2025-04-29 06:01:34 by Eclipse SUMO sumo Version 1.20.0
<configuration xmlns:xsi="http://www.w3.org/2001/XMLSchema-instance" xsi:noNamespaceSchemaLocation="http://sumo.dlr.de/xsd/sumoConfiguration.xsd">

    <input>
        <net-file value="nets/2lane_unprotected_right/2lane_unprotected_right.net.xml"/>
        <route-files value="nets/2lane_unprotected_right/2lane_unprotected_right.rou.xml"/>
    </input>

    <output>
        <tripinfo-output value="traces/transs50f0.5_s50_f1_random/0092_tripinfo.xml"/>
        <collision-output value="traces/transs50f0.5_s50_f1_random/0092_collisions.xml"/>
        <statistic-output value="traces/transs50f0.5_s50_f1_random/0092_statistics.xml"/>
    </output>

    <processing>
        <collision.action value="teleport"/>
        <collision.check-junctions value="true"/>
        <time-to-teleport value="-1"/>
        <waiting-time-memory value="1000"/>
        <max-depart-delay value="-1"/>
        <default.speeddev value="0.1"/>
    </processing>

    <report>
        <no-warnings value="true"/>
    </report>

    <ssm_device>
        <device.ssm.probability value="1.0"/>
        <device.ssm.measures value="BR"/>
        <device.ssm.file value="/Users/finn/Code/CausalKnowledgeTransfer-4-SafeRL/traces/transs50f0.5_s50_f1_random/0092_ssm.xml"/>
    </ssm_device>

    <traci_server>
        <remote-port value="63542"/>
    </traci_server>

    <random_number>
        <random value="true"/>
    </random_number>

</configuration>
-->

<tripinfos xmlns:xsi="http://www.w3.org/2001/XMLSchema-instance" xsi:noNamespaceSchemaLocation="http://sumo.dlr.de/xsd/tripinfo_file.xsd">
    <tripinfo id="southEast.3" depart="42.00" departLane="southJunction_0" departPos="5.10" departSpeed="7.91" departDelay="0.21" arrival="108.00" arrivalLane="junctionEast_0" arrivalPos="492.80" arrivalSpeed="6.33" duration="66.00" routeLength="989.53" waitingTime="0.00" waitingCount="0" stopTime="0.00" timeLoss="6.08" rerouteNo="0" devices="tripinfo_southEast.3 ssm_southEast.3" vType="carCustom" speedFactor="0.98" vaporized="teleport"/>
    <tripinfo id="southEast.0" depart="5.00" departLane="southJunction_0" departPos="5.10" departSpeed="8.33" departDelay="0.90" arrival="134.00" arrivalLane="junctionEast_0" arrivalPos="492.80" arrivalSpeed="7.53" duration="129.00" routeLength="989.53" waitingTime="0.00" waitingCount="0" stopTime="0.00" timeLoss="9.84" rerouteNo="0" devices="tripinfo_southEast.0 ssm_southEast.0" vType="carCustom" speedFactor="1.13" vaporized=""/>
    <tripinfo id="westEastTop.0" depart="6.00" departLane="westJunction_1" departPos="5.10" departSpeed="8.33" departDelay="0.78" arrival="136.00" arrivalLane="junctionEast_1" arrivalPos="492.80" arrivalSpeed="7.80" duration="130.00" routeLength="994.90" waitingTime="0.00" waitingCount="0" stopTime="0.00" timeLoss="10.53" rerouteNo="0" devices="tripinfo_westEastTop.0 ssm_westEastTop.0" vType="carCustom" speedFactor="1.02" vaporized=""/>
    <tripinfo id="southNorth.0" depart="11.00" departLane="southJunction_1" departPos="5.10" departSpeed="8.33" departDelay="0.44" arrival="141.00" arrivalLane="junctionNorth_0" arrivalPos="492.80" arrivalSpeed="8.15" duration="130.00" routeLength="995.01" waitingTime="0.00" waitingCount="0" stopTime="0.00" timeLoss="10.40" rerouteNo="0" devices="tripinfo_southNorth.0 ssm_southNorth.0" vType="carCustom" speedFactor="1.02" vaporized=""/>
    <tripinfo id="southEast.1" depart="9.00" departLane="southJunction_0" departPos="5.10" departSpeed="8.31" departDelay="0.19" arrival="142.00" arrivalLane="junctionEast_0" arrivalPos="492.80" arrivalSpeed="7.64" duration="133.00" routeLength="989.53" waitingTime="0.00" waitingCount="0" stopTime="0.00" timeLoss="13.13" rerouteNo="0" devices="tripinfo_southEast.1 ssm_southEast.1" vType="carCustom" speedFactor="0.95" vaporized=""/>
    <tripinfo id="southNorth.1" depart="14.00" departLane="southJunction_1" departPos="5.10" departSpeed="7.87" departDelay="3.30" arrival="150.00" arrivalLane="junctionNorth_0" arrivalPos="492.80" arrivalSpeed="7.28" duration="136.00" routeLength="995.01" waitingTime="0.00" waitingCount="0" stopTime="0.00" timeLoss="15.74" rerouteNo="0" devices="tripinfo_southNorth.1 ssm_southNorth.1" vType="carCustom" speedFactor="1.11" vaporized=""/>
    <tripinfo id="westEastTop.1" depart="21.00" departLane="westJunction_1" departPos="5.10" departSpeed="7.81" departDelay="0.05" arrival="155.00" arrivalLane="junctionEast_0" arrivalPos="492.80" arrivalSpeed="7.72" duration="134.00" routeLength="994.90" waitingTime="1.00" waitingCount="1" stopTime="0.00" timeLoss="14.50" rerouteNo="0" devices="tripinfo_westEastTop.1 ssm_westEastTop.1" vType="carCustom" speedFactor="1.04" vaporized=""/>
    <tripinfo id="southEast.2" depart="27.00" departLane="southJunction_0" departPos="5.10" departSpeed="7.58" departDelay="0.47" arrival="161.00" arrivalLane="junctionEast_1" arrivalPos="492.80" arrivalSpeed="8.07" duration="134.00" routeLength="989.53" waitingTime="0.00" waitingCount="0" stopTime="0.00" timeLoss="14.48" rerouteNo="0" devices="tripinfo_southEast.2 ssm_southEast.2" vType="carCustom" speedFactor="0.95" vaporized=""/>
    <tripinfo id="westEastTop.2" depart="24.00" departLane="westJunction_1" departPos="5.10" departSpeed="7.52" departDelay="2.20" arrival="162.00" arrivalLane="junctionEast_0" arrivalPos="492.80" arrivalSpeed="7.25" duration="138.00" routeLength="994.90" waitingTime="0.00" waitingCount="0" stopTime="0.00" timeLoss="18.11" rerouteNo="0" devices="tripinfo_westEastTop.2 ssm_westEastTop.2" vType="carCustom" speedFactor="0.93" vaporized=""/>
    <tripinfo id="southNorth.2" depart="32.00" departLane="southJunction_1" departPos="5.10" departSpeed="7.54" departDelay="0.06" arrival="164.00" arrivalLane="junctionNorth_0" arrivalPos="492.80" arrivalSpeed="8.33" duration="132.00" routeLength="995.01" waitingTime="0.00" waitingCount="0" stopTime="0.00" timeLoss="11.89" rerouteNo="0" devices="tripinfo_southNorth.2 ssm_southNorth.2" vType="carCustom" speedFactor="1.00" vaporized=""/>
    <tripinfo id="westEastTop.3" depart="27.00" departLane="westJunction_1" departPos="5.10" departSpeed="4.56" departDelay="4.83" arrival="170.00" arrivalLane="junctionEast_0" arrivalPos="492.80" arrivalSpeed="7.12" duration="143.00" routeLength="994.90" waitingTime="1.00" waitingCount="1" stopTime="0.00" timeLoss="23.27" rerouteNo="0" devices="tripinfo_westEastTop.3 ssm_westEastTop.3" vType="carCustom" speedFactor="0.96" vaporized=""/>
    <tripinfo id="southEast.7" depart="96.00" departLane="southJunction_0" departPos="5.10" departSpeed="5.14" departDelay="3.17" arrival="171.00" arrivalLane="junctionEast_0" arrivalPos="492.80" arrivalSpeed="5.00" duration="75.00" routeLength="989.53" waitingTime="0.00" waitingCount="0" stopTime="0.00" timeLoss="15.08" rerouteNo="0" devices="tripinfo_southEast.7 ssm_southEast.7" vType="carCustom" speedFactor="0.95" vaporized="teleport"/>
    <tripinfo id="southNorth.3" depart="37.00" departLane="southJunction_1" departPos="5.10" departSpeed="7.64" departDelay="0.33" arrival="175.00" arrivalLane="junctionNorth_0" arrivalPos="492.80" arrivalSpeed="7.21" duration="138.00" routeLength="995.01" waitingTime="2.00" waitingCount="1" stopTime="0.00" timeLoss="17.98" rerouteNo="0" devices="tripinfo_southNorth.3 ssm_southNorth.3" vType="carCustom" speedFactor="1.16" vaporized=""/>
    <tripinfo id="westEastBottom0.0" depart="43.00" departLane="westJunction_0" departPos="5.10" departSpeed="8.33" departDelay="0.56" arrival="177.00" arrivalLane="junctionEast_0" arrivalPos="492.80" arrivalSpeed="8.14" duration="134.00" routeLength="994.90" waitingTime="0.00" waitingCount="0" stopTime="0.00" timeLoss="14.08" rerouteNo="0" devices="tripinfo_westEastBottom0.0 ssm_westEastBottom0.0" vType="carCustom" speedFactor="1.26" vaporized=""/>
    <tripinfo id="westEastTop.4" depart="31.00" departLane="westJunction_1" departPos="5.10" departSpeed="4.16" departDelay="7.95" arrival="183.00" arrivalLane="junctionEast_1" arrivalPos="492.80" arrivalSpeed="7.64" duration="152.00" routeLength="994.90" waitingTime="3.00" waitingCount="1" stopTime="0.00" timeLoss="32.53" rerouteNo="0" devices="tripinfo_westEastTop.4 ssm_westEastTop.4" vType="carCustom" speedFactor="0.99" vaporized=""/>
    <tripinfo id="westEastBottom0.1" depart="46.00" departLane="westJunction_0" departPos="5.10" departSpeed="7.87" departDelay="1.10" arrival="183.00" arrivalLane="junctionEast_0" arrivalPos="492.80" arrivalSpeed="7.90" duration="137.00" routeLength="994.90" waitingTime="0.00" waitingCount="0" stopTime="0.00" timeLoss="17.18" rerouteNo="0" devices="tripinfo_westEastBottom0.1 ssm_westEastBottom0.1" vType="carCustom" speedFactor="0.93" vaporized=""/>
    <tripinfo id="southNorth.4" depart="41.00" departLane="southJunction_1" departPos="5.10" departSpeed="6.79" departDelay="0.36" arrival="185.00" arrivalLane="junctionNorth_0" arrivalPos="492.80" arrivalSpeed="7.65" duration="144.00" routeLength="995.01" waitingTime="4.00" waitingCount="1" stopTime="0.00" timeLoss="24.51" rerouteNo="0" devices="tripinfo_southNorth.4 ssm_southNorth.4" vType="carCustom" speedFactor="1.13" vaporized=""/>
    <tripinfo id="westEastTop.5" depart="35.00" departLane="westJunction_1" departPos="5.10" departSpeed="3.24" departDelay="11.56" arrival="191.00" arrivalLane="junctionEast_1" arrivalPos="492.80" arrivalSpeed="7.08" duration="156.00" routeLength="994.90" waitingTime="3.00" waitingCount="1" stopTime="0.00" timeLoss="35.93" rerouteNo="0" devices="tripinfo_westEastTop.5 ssm_westEastTop.5" vType="carCustom" speedFactor="0.99" vaporized=""/>
    <tripinfo id="westEastBottom0.2" depart="49.00" departLane="westJunction_0" departPos="5.10" departSpeed="4.76" departDelay="1.49" arrival="191.00" arrivalLane="junctionEast_0" arrivalPos="492.80" arrivalSpeed="7.59" duration="142.00" routeLength="994.90" waitingTime="1.00" waitingCount="1" stopTime="0.00" timeLoss="22.00" rerouteNo="0" devices="tripinfo_westEastBottom0.2 ssm_westEastBottom0.2" vType="carCustom" speedFactor="0.99" vaporized=""/>
    <tripinfo id="southNorth.5" depart="53.00" departLane="southJunction_1" departPos="5.10" departSpeed="6.97" departDelay="0.41" arrival="196.00" arrivalLane="junctionNorth_0" arrivalPos="492.80" arrivalSpeed="8.00" duration="143.00" routeLength="995.01" waitingTime="4.00" waitingCount="1" stopTime="0.00" timeLoss="22.81" rerouteNo="0" devices="tripinfo_southNorth.5 ssm_southNorth.5" vType="carCustom" speedFactor="1.10" vaporized=""/>
    <tripinfo id="westEastTop.6" depart="39.00" departLane="westJunction_1" departPos="5.10" departSpeed="2.75" departDelay="11.02" arrival="200.00" arrivalLane="junctionEast_1" arrivalPos="492.80" arrivalSpeed="7.70" duration="161.00" routeLength="994.90" waitingTime="5.00" waitingCount="1" stopTime="0.00" timeLoss="41.29" rerouteNo="0" devices="tripinfo_westEastTop.6 ssm_westEastTop.6" vType="carCustom" speedFactor="0.83" vaporized=""/>
    <tripinfo id="westEastBottom0.3" depart="64.00" departLane="westJunction_0" departPos="5.10" departSpeed="6.48" departDelay="0.75" arrival="200.00" arrivalLane="junctionEast_0" arrivalPos="492.80" arrivalSpeed="7.30" duration="136.00" routeLength="994.90" waitingTime="1.00" waitingCount="1" stopTime="0.00" timeLoss="16.53" rerouteNo="0" devices="tripinfo_westEastBottom0.3 ssm_westEastBottom0.3" vType="carCustom" speedFactor="0.92" vaporized=""/>
    <tripinfo id="westEastTop.7" depart="44.00" departLane="westJunction_1" departPos="5.10" departSpeed="2.67" departDelay="15.15" arrival="207.00" arrivalLane="junctionEast_0" arrivalPos="492.80" arrivalSpeed="7.76" duration="163.00" routeLength="994.90" waitingTime="0.00" waitingCount="0" stopTime="0.00" timeLoss="42.81" rerouteNo="0" devices="tripinfo_westEastTop.7 ssm_westEastTop.7" vType="carCustom" speedFactor="1.07" vaporized=""/>
    <tripinfo id="westEastTop.8" depart="49.00" departLane="westJunction_1" departPos="5.10" departSpeed="3.57" departDelay="20.06" arrival="208.00" arrivalLane="junctionEast_1" arrivalPos="492.80" arrivalSpeed="7.34" duration="159.00" routeLength="994.90" waitingTime="0.00" waitingCount="0" stopTime="0.00" timeLoss="39.47" rerouteNo="0" devices="tripinfo_westEastTop.8 ssm_westEastTop.8" vType="carCustom" speedFactor="1.02" vaporized=""/>
    <tripinfo id="southNorth.6" depart="55.00" departLane="southJunction_1" departPos="5.10" departSpeed="7.16" departDelay="0.04" arrival="211.00" arrivalLane="junctionNorth_0" arrivalPos="492.80" arrivalSpeed="7.45" duration="156.00" routeLength="995.01" waitingTime="10.00" waitingCount="1" stopTime="0.00" timeLoss="35.83" rerouteNo="0" devices="tripinfo_southNorth.6 ssm_southNorth.6" vType="carCustom" speedFactor="0.93" vaporized=""/>
    <tripinfo id="southEast.4" depart="81.00" departLane="southJunction_0" departPos="5.10" departSpeed="8.31" departDelay="0.32" arrival="213.00" arrivalLane="junctionEast_0" arrivalPos="492.80" arrivalSpeed="7.68" duration="132.00" routeLength="989.53" waitingTime="0.00" waitingCount="0" stopTime="0.00" timeLoss="12.38" rerouteNo="0" devices="tripinfo_southEast.4 ssm_southEast.4" vType="carCustom" speedFactor="1.04" vaporized=""/>
    <tripinfo id="southEast.12" depart="152.00" departLane="southJunction_0" departPos="5.10" departSpeed="7.67" departDelay="0.93" arrival="219.00" arrivalLane="junctionEast_0" arrivalPos="492.80" arrivalSpeed="3.22" duration="67.00" routeLength="989.53" waitingTime="0.00" waitingCount="0" stopTime="0.00" timeLoss="6.72" rerouteNo="0" devices="tripinfo_southEast.12 ssm_southEast.12" vType="carCustom" speedFactor="0.92" vaporized="teleport"/>
    <tripinfo id="westEastTop.9" depart="53.00" departLane="westJunction_1" departPos="5.10" departSpeed="3.04" departDelay="22.33" arrival="220.00" arrivalLane="junctionEast_0" arrivalPos="492.80" arrivalSpeed="8.08" duration="167.00" routeLength="994.90" waitingTime="1.00" waitingCount="1" stopTime="0.00" timeLoss="46.75" rerouteNo="0" devices="tripinfo_westEastTop.9 ssm_westEastTop.9" vType="carCustom" speedFactor="0.85" vaporized=""/>
    <tripinfo id="southEast.13" depart="154.00" departLane="southJunction_0" departPos="5.10" departSpeed="7.73" departDelay="1.71" arrival="225.00" arrivalLane="junctionEast_0" arrivalPos="492.80" arrivalSpeed="4.41" duration="71.00" routeLength="989.53" waitingTime="0.00" waitingCount="0" stopTime="0.00" timeLoss="11.08" rerouteNo="0" devices="tripinfo_southEast.13 ssm_southEast.13" vType="carCustom" speedFactor="1.09" vaporized="teleport"/>
    <tripinfo id="westEastTop.10" depart="58.00" departLane="westJunction_1" departPos="5.10" departSpeed="2.12" departDelay="14.86" arrival="226.00" arrivalLane="junctionEast_1" arrivalPos="492.80" arrivalSpeed="7.21" duration="168.00" routeLength="994.90" waitingTime="0.00" waitingCount="0" stopTime="0.00" timeLoss="47.76" rerouteNo="0" devices="tripinfo_westEastTop.10 ssm_westEastTop.10" vType="carCustom" speedFactor="0.80" vaporized=""/>
    <tripinfo id="westEastTop.11" depart="64.00" departLane="westJunction_1" departPos="5.10" departSpeed="3.04" departDelay="20.04" arrival="226.00" arrivalLane="junctionEast_0" arrivalPos="492.80" arrivalSpeed="7.06" duration="162.00" routeLength="994.90" waitingTime="0.00" waitingCount="0" stopTime="0.00" timeLoss="42.18" rerouteNo="0" devices="tripinfo_westEastTop.11 ssm_westEastTop.11" vType="carCustom" speedFactor="0.95" vaporized=""/>
    <tripinfo id="southNorth.7" depart="96.00" departLane="southJunction_1" departPos="5.10" departSpeed="7.84" departDelay="1.00" arrival="230.00" arrivalLane="junctionNorth_0" arrivalPos="492.80" arrivalSpeed="7.48" duration="134.00" routeLength="995.01" waitingTime="0.00" waitingCount="0" stopTime="0.00" timeLoss="13.71" rerouteNo="0" devices="tripinfo_southNorth.7 ssm_southNorth.7" vType="carCustom" speedFactor="0.90" vaporized=""/>
    <tripinfo id="westEastTop.12" depart="69.00" departLane="westJunction_1" departPos="5.10" departSpeed="2.50" departDelay="19.52" arrival="232.00" arrivalLane="junctionEast_1" arrivalPos="492.80" arrivalSpeed="8.17" duration="163.00" routeLength="994.90" waitingTime="0.00" waitingCount="0" stopTime="0.00" timeLoss="43.00" rerouteNo="0" devices="tripinfo_westEastTop.12 ssm_westEastTop.12" vType="carCustom" speedFactor="1.18" vaporized=""/>
    <tripinfo id="southEast.5" depart="90.00" departLane="southJunction_0" departPos="5.10" departSpeed="7.12" departDelay="0.55" arrival="232.00" arrivalLane="junctionEast_0" arrivalPos="492.80" arrivalSpeed="7.05" duration="142.00" routeLength="989.53" waitingTime="0.00" waitingCount="0" stopTime="0.00" timeLoss="22.98" rerouteNo="0" devices="tripinfo_southEast.5 ssm_southEast.5" vType="carCustom" speedFactor="1.17" vaporized=""/>
    <tripinfo id="westEastTop.13" depart="74.00" departLane="westJunction_1" departPos="5.10" departSpeed="2.55" departDelay="23.75" arrival="238.00" arrivalLane="junctionEast_1" arrivalPos="492.80" arrivalSpeed="7.44" duration="164.00" routeLength="994.90" waitingTime="0.00" waitingCount="0" stopTime="0.00" timeLoss="44.26" rerouteNo="0" devices="tripinfo_westEastTop.13 ssm_westEastTop.13" vType="carCustom" speedFactor="1.08" vaporized=""/>
    <tripinfo id="southEast.6" depart="93.00" departLane="southJunction_0" departPos="5.10" departSpeed="7.61" departDelay="1.76" arrival="238.00" arrivalLane="junctionEast_0" arrivalPos="492.80" arrivalSpeed="7.20" duration="145.00" routeLength="989.53" waitingTime="0.00" waitingCount="0" stopTime="0.00" timeLoss="25.48" rerouteNo="0" devices="tripinfo_southEast.6 ssm_southEast.6" vType="carCustom" speedFactor="0.90" vaporized=""/>
    <tripinfo id="southNorth.8" depart="103.00" departLane="southJunction_1" departPos="5.10" departSpeed="7.69" departDelay="0.43" arrival="240.00" arrivalLane="junctionNorth_0" arrivalPos="492.80" arrivalSpeed="7.49" duration="137.00" routeLength="995.01" waitingTime="2.00" waitingCount="1" stopTime="0.00" timeLoss="17.55" rerouteNo="0" devices="tripinfo_southNorth.8 ssm_southNorth.8" vType="carCustom" speedFactor="0.91" vaporized=""/>
    <tripinfo id="westEastBottom0.4" depart="101.00" departLane="westJunction_0" departPos="5.10" departSpeed="7.28" departDelay="0.62" arrival="244.00" arrivalLane="junctionEast_0" arrivalPos="492.80" arrivalSpeed="7.59" duration="143.00" routeLength="994.90" waitingTime="1.00" waitingCount="1" stopTime="0.00" timeLoss="23.22" rerouteNo="0" devices="tripinfo_westEastBottom0.4 ssm_westEastBottom0.4" vType="carCustom" speedFactor="0.93" vaporized=""/>
    <tripinfo id="westEastTop.14" depart="79.00" departLane="westJunction_1" departPos="5.10" departSpeed="3.12" departDelay="25.09" arrival="245.00" arrivalLane="junctionEast_1" arrivalPos="492.80" arrivalSpeed="8.00" duration="166.00" routeLength="994.90" waitingTime="5.00" waitingCount="1" stopTime="0.00" timeLoss="45.51" rerouteNo="0" devices="tripinfo_westEastTop.14 ssm_westEastTop.14" vType="carCustom" speedFactor="1.02" vaporized=""/>
    <tripinfo id="southEast.8" depart="102.00" departLane="southJunction_0" departPos="5.10" departSpeed="4.60" departDelay="0.56" arrival="250.00" arrivalLane="junctionEast_0" arrivalPos="492.80" arrivalSpeed="8.15" duration="148.00" routeLength="989.53" waitingTime="0.00" waitingCount="0" stopTime="0.00" timeLoss="29.06" rerouteNo="0" devices="tripinfo_southEast.8 ssm_southEast.8" vType="carCustom" speedFactor="1.05" vaporized=""/>
    <tripinfo id="westEastTop.15" depart="84.00" departLane="westJunction_1" departPos="5.10" departSpeed="2.77" departDelay="25.61" arrival="251.00" arrivalLane="junctionEast_1" arrivalPos="492.80" arrivalSpeed="7.96" duration="167.00" routeLength="994.90" waitingTime="0.00" waitingCount="0" stopTime="0.00" timeLoss="47.05" rerouteNo="0" devices="tripinfo_westEastTop.15 ssm_westEastTop.15" vType="carCustom" speedFactor="0.80" vaporized=""/>
    <tripinfo id="southNorth.9" depart="109.00" departLane="southJunction_1" departPos="5.10" departSpeed="7.13" departDelay="0.05" arrival="251.00" arrivalLane="junctionNorth_0" arrivalPos="492.80" arrivalSpeed="8.04" duration="142.00" routeLength="995.01" waitingTime="3.00" waitingCount="1" stopTime="0.00" timeLoss="22.06" rerouteNo="0" devices="tripinfo_southNorth.9 ssm_southNorth.9" vType="carCustom" speedFactor="1.18" vaporized=""/>
    <tripinfo id="westEastBottom0.14" depart="185.00" departLane="westJunction_0" departPos="5.10" departSpeed="8.24" departDelay="0.11" arrival="255.00" arrivalLane="junctionEast_0" arrivalPos="492.80" arrivalSpeed="2.62" duration="70.00" routeLength="994.90" waitingTime="0.00" waitingCount="0" stopTime="0.00" timeLoss="9.69" rerouteNo="0" devices="tripinfo_westEastBottom0.14 ssm_westEastBottom0.14" vType="carCustom" speedFactor="1.07" vaporized="teleport"/>
    <tripinfo id="westEastBottom0.5" depart="106.00" departLane="westJunction_0" departPos="5.10" departSpeed="8.26" departDelay="1.00" arrival="257.00" arrivalLane="junctionEast_0" arrivalPos="492.80" arrivalSpeed="7.95" duration="151.00" routeLength="994.90" waitingTime="2.00" waitingCount="1" stopTime="0.00" timeLoss="30.79" rerouteNo="0" devices="tripinfo_westEastBottom0.5 ssm_westEastBottom0.5" vType="carCustom" speedFactor="1.25" vaporized=""/>
    <tripinfo id="westEastTop.16" depart="89.00" departLane="westJunction_1" departPos="5.10" departSpeed="2.25" departDelay="26.32" arrival="258.00" arrivalLane="junctionEast_1" arrivalPos="492.80" arrivalSpeed="8.19" duration="169.00" routeLength="994.90" waitingTime="0.00" waitingCount="0" stopTime="0.00" timeLoss="48.66" rerouteNo="0" devices="tripinfo_westEastTop.16 ssm_westEastTop.16" vType="carCustom" speedFactor="0.94" vaporized=""/>
    <tripinfo id="southNorth.10" depart="116.00" departLane="southJunction_1" departPos="5.10" departSpeed="6.97" departDelay="0.65" arrival="260.00" arrivalLane="junctionNorth_0" arrivalPos="492.80" arrivalSpeed="7.09" duration="144.00" routeLength="995.01" waitingTime="3.00" waitingCount="1" stopTime="0.00" timeLoss="24.28" rerouteNo="0" devices="tripinfo_southNorth.10 ssm_southNorth.10" vType="carCustom" speedFactor="1.00" vaporized=""/>
    <tripinfo id="southEast.9" depart="112.00" departLane="southJunction_0" departPos="5.10" departSpeed="5.29" departDelay="0.32" arrival="263.00" arrivalLane="junctionEast_0" arrivalPos="492.80" arrivalSpeed="7.64" duration="151.00" routeLength="989.53" waitingTime="0.00" waitingCount="0" stopTime="0.00" timeLoss="31.14" rerouteNo="0" devices="tripinfo_southEast.9 ssm_southEast.9" vType="carCustom" speedFactor="1.07" vaporized=""/>
    <tripinfo id="westEastBottom0.6" depart="111.00" departLane="westJunction_0" departPos="5.10" departSpeed="6.50" departDelay="0.18" arrival="264.00" arrivalLane="junctionEast_1" arrivalPos="492.80" arrivalSpeed="7.47" duration="153.00" routeLength="994.90" waitingTime="3.00" waitingCount="1" stopTime="0.00" timeLoss="33.11" rerouteNo="0" devices="tripinfo_westEastBottom0.6 ssm_westEastBottom0.6" vType="carCustom" speedFactor="0.97" vaporized=""/>
    <tripinfo id="southEast.10" depart="119.00" departLane="southJunction_0" departPos="5.10" departSpeed="7.15" departDelay="0.13" arrival="269.00" arrivalLane="junctionEast_0" arrivalPos="492.80" arrivalSpeed="8.30" duration="150.00" routeLength="989.53" waitingTime="2.00" waitingCount="1" stopTime="0.00" timeLoss="29.77" rerouteNo="0" devices="tripinfo_southEast.10 ssm_southEast.10" vType="carCustom" speedFactor="0.68" vaporized=""/>
    <tripinfo id="westEastTop.17" depart="94.00" departLane="westJunction_1" departPos="5.10" departSpeed="2.45" departDelay="24.32" arrival="270.00" arrivalLane="junctionEast_1" arrivalPos="492.80" arrivalSpeed="8.02" duration="176.00" routeLength="994.90" waitingTime="4.00" waitingCount="1" stopTime="0.00" timeLoss="56.45" rerouteNo="0" devices="tripinfo_westEastTop.17 ssm_westEastTop.17" vType="carCustom" speedFactor="1.03" vaporized=""/>
    <tripinfo id="southNorth.11" depart="131.00" departLane="southJunction_1" departPos="5.10" departSpeed="7.11" departDelay="0.18" arrival="270.00" arrivalLane="junctionNorth_0" arrivalPos="492.80" arrivalSpeed="7.17" duration="139.00" routeLength="995.01" waitingTime="3.00" waitingCount="1" stopTime="0.00" timeLoss="19.51" rerouteNo="0" devices="tripinfo_southNorth.11 ssm_southNorth.11" vType="carCustom" speedFactor="0.94" vaporized=""/>
    <tripinfo id="westEastBottom0.7" depart="123.00" departLane="westJunction_0" departPos="5.10" departSpeed="6.60" departDelay="0.75" arrival="275.00" arrivalLane="junctionEast_0" arrivalPos="492.80" arrivalSpeed="7.97" duration="152.00" routeLength="994.90" waitingTime="2.00" waitingCount="1" stopTime="0.00" timeLoss="32.16" rerouteNo="0" devices="tripinfo_westEastBottom0.7 ssm_westEastBottom0.7" vType="carCustom" speedFactor="0.92" vaporized=""/>
    <tripinfo id="westEastTop.18" depart="99.00" departLane="westJunction_1" departPos="5.10" departSpeed="2.34" departDelay="21.69" arrival="280.00" arrivalLane="junctionEast_0" arrivalPos="492.80" arrivalSpeed="7.95" duration="181.00" routeLength="994.90" waitingTime="4.00" waitingCount="1" stopTime="0.00" timeLoss="61.54" rerouteNo="0" devices="tripinfo_westEastTop.18 ssm_westEastTop.18" vType="carCustom" speedFactor="0.89" vaporized=""/>
    <tripinfo id="southEast.11" depart="137.00" departLane="southJunction_0" departPos="5.10" departSpeed="7.30" departDelay="0.59" arrival="281.00" arrivalLane="junctionEast_1" arrivalPos="492.80" arrivalSpeed="7.12" duration="144.00" routeLength="989.53" waitingTime="0.00" waitingCount="0" stopTime="0.00" timeLoss="24.43" rerouteNo="0" devices="tripinfo_southEast.11 ssm_southEast.11" vType="carCustom" speedFactor="0.97" vaporized=""/>
    <tripinfo id="westEastBottom0.18" depart="201.00" departLane="westJunction_0" departPos="5.10" departSpeed="4.70" departDelay="3.69" arrival="283.00" arrivalLane="junctionEast_0" arrivalPos="492.80" arrivalSpeed="1.66" duration="82.00" routeLength="994.90" waitingTime="0.00" waitingCount="0" stopTime="0.00" timeLoss="21.59" rerouteNo="0" devices="tripinfo_westEastBottom0.18 ssm_westEastBottom0.18" vType="carCustom" speedFactor="1.13" vaporized="teleport"/>
    <tripinfo id="westEastBottom0.8" depart="142.00" departLane="westJunction_0" departPos="5.10" departSpeed="7.25" departDelay="0.77" arrival="286.00" arrivalLane="junctionEast_0" arrivalPos="492.80" arrivalSpeed="7.66" duration="144.00" routeLength="994.90" waitingTime="0.00" waitingCount="0" stopTime="0.00" timeLoss="24.49" rerouteNo="0" devices="tripinfo_westEastBottom0.8 ssm_westEastBottom0.8" vType="carCustom" speedFactor="1.12" vaporized=""/>
    <tripinfo id="westEastTop.19" depart="104.00" departLane="westJunction_1" departPos="5.10" departSpeed="1.72" departDelay="20.56" arrival="287.00" arrivalLane="junctionEast_0" arrivalPos="492.80" arrivalSpeed="8.03" duration="183.00" routeLength="994.90" waitingTime="1.00" waitingCount="1" stopTime="0.00" timeLoss="62.98" rerouteNo="0" devices="tripinfo_westEastTop.19 ssm_westEastTop.19" vType="carCustom" speedFactor="0.98" vaporized=""/>
    <tripinfo id="westEastBottom0.9" depart="144.00" departLane="westJunction_0" departPos="5.10" departSpeed="8.29" departDelay="1.87" arrival="292.00" arrivalLane="junctionEast_0" arrivalPos="492.80" arrivalSpeed="7.65" duration="148.00" routeLength="994.90" waitingTime="0.00" waitingCount="0" stopTime="0.00" timeLoss="28.47" rerouteNo="0" devices="tripinfo_westEastBottom0.9 ssm_westEastBottom0.9" vType="carCustom" speedFactor="0.99" vaporized=""/>
    <tripinfo id="westEastTop.20" depart="110.00" departLane="westJunction_1" departPos="5.10" departSpeed="2.80" departDelay="25.71" arrival="293.00" arrivalLane="junctionEast_0" arrivalPos="492.80" arrivalSpeed="8.30" duration="183.00" routeLength="994.90" waitingTime="0.00" waitingCount="0" stopTime="0.00" timeLoss="62.96" rerouteNo="0" devices="tripinfo_westEastTop.20 ssm_westEastTop.20" vType="carCustom" speedFactor="0.98" vaporized=""/>
    <tripinfo id="southNorth.12" depart="165.00" departLane="southJunction_1" departPos="5.10" departSpeed="7.46" departDelay="0.40" arrival="298.00" arrivalLane="junctionNorth_0" arrivalPos="492.80" arrivalSpeed="7.98" duration="133.00" routeLength="995.01" waitingTime="0.00" waitingCount="0" stopTime="0.00" timeLoss="13.17" rerouteNo="0" devices="tripinfo_southNorth.12 ssm_southNorth.12" vType="carCustom" speedFactor="0.94" vaporized=""/>
    <tripinfo id="westEastTop.21" depart="115.00" departLane="westJunction_1" departPos="5.10" departSpeed="2.11" departDelay="23.91" arrival="299.00" arrivalLane="junctionEast_1" arrivalPos="492.80" arrivalSpeed="7.56" duration="184.00" routeLength="994.90" waitingTime="0.00" waitingCount="0" stopTime="0.00" timeLoss="63.98" rerouteNo="0" devices="tripinfo_westEastTop.21 ssm_westEastTop.21" vType="carCustom" speedFactor="0.93" vaporized=""/>
    <tripinfo id="westEastBottom0.10" depart="147.00" departLane="westJunction_0" departPos="5.10" departSpeed="4.50" departDelay="1.32" arrival="299.00" arrivalLane="junctionEast_0" arrivalPos="492.80" arrivalSpeed="8.28" duration="152.00" routeLength="994.90" waitingTime="0.00" waitingCount="0" stopTime="0.00" timeLoss="31.61" rerouteNo="0" devices="tripinfo_westEastBottom0.10 ssm_westEastBottom0.10" vType="carCustom" speedFactor="1.12" vaporized=""/>
    <tripinfo id="westEastBottom0.11" depart="152.00" departLane="westJunction_0" departPos="5.10" departSpeed="4.95" departDelay="0.66" arrival="304.00" arrivalLane="junctionEast_0" arrivalPos="492.80" arrivalSpeed="7.80" duration="152.00" routeLength="994.90" waitingTime="0.00" waitingCount="0" stopTime="0.00" timeLoss="32.32" rerouteNo="0" devices="tripinfo_westEastBottom0.11 ssm_westEastBottom0.11" vType="carCustom" speedFactor="1.11" vaporized=""/>