<?xml version="1.0" encoding="UTF-8"?>

<!-- generated on 2025-04-29 06:09:06 by Eclipse SUMO sumo Version 1.20.0
<configuration xmlns:xsi="http://www.w3.org/2001/XMLSchema-instance" xsi:noNamespaceSchemaLocation="http://sumo.dlr.de/xsd/sumoConfiguration.xsd">

    <input>
        <net-file value="nets/2lane_unprotected_right/2lane_unprotected_right.net.xml"/>
        <route-files value="nets/2lane_unprotected_right/2lane_unprotected_right.rou.xml"/>
    </input>

    <output>
        <tripinfo-output value="traces/transs50f0.5_s50_f1_random/0099_tripinfo.xml"/>
        <collision-output value="traces/transs50f0.5_s50_f1_random/0099_collisions.xml"/>
        <statistic-output value="traces/transs50f0.5_s50_f1_random/0099_statistics.xml"/>
    </output>

    <processing>
        <collision.action value="teleport"/>
        <collision.check-junctions value="true"/>
        <time-to-teleport value="-1"/>
        <waiting-time-memory value="1000"/>
        <max-depart-delay value="-1"/>
        <default.speeddev value="0.1"/>
    </processing>

    <report>
        <no-warnings value="true"/>
    </report>

    <ssm_device>
        <device.ssm.probability value="1.0"/>
        <device.ssm.measures value="BR"/>
        <device.ssm.file value="/Users/finn/Code/CausalKnowledgeTransfer-4-SafeRL/traces/transs50f0.5_s50_f1_random/0099_ssm.xml"/>
    </ssm_device>

    <traci_server>
        <remote-port value="63629"/>
    </traci_server>

    <random_number>
        <random value="true"/>
    </random_number>

</configuration>
-->

<tripinfos xmlns:xsi="http://www.w3.org/2001/XMLSchema-instance" xsi:noNamespaceSchemaLocation="http://sumo.dlr.de/xsd/tripinfo_file.xsd">
    <tripinfo id="westEastBottom0.6" depart="49.00" departLane="westJunction_0" departPos="5.10" departSpeed="7.53" departDelay="0.88" arrival="115.00" arrivalLane="junctionEast_0" arrivalPos="492.80" arrivalSpeed="4.87" duration="66.00" routeLength="994.90" waitingTime="0.00" waitingCount="0" stopTime="0.00" timeLoss="5.29" rerouteNo="0" devices="tripinfo_westEastBottom0.6 ssm_westEastBottom0.6" vType="carCustom" speedFactor="1.37" vaporized="teleport"/>
    <tripinfo id="southNorth.0" depart="1.00" departLane="southJunction_1" departPos="5.10" departSpeed="8.33" departDelay="0.69" arrival="131.00" arrivalLane="junctionNorth_0" arrivalPos="492.80" arrivalSpeed="8.32" duration="130.00" routeLength="995.01" waitingTime="0.00" waitingCount="0" stopTime="0.00" timeLoss="10.36" rerouteNo="0" devices="tripinfo_southNorth.0 ssm_southNorth.0" vType="carCustom" speedFactor="0.95" vaporized=""/>
    <tripinfo id="westEastBottom0.0" depart="4.00" departLane="westJunction_0" departPos="5.10" departSpeed="8.33" departDelay="0.93" arrival="134.00" arrivalLane="junctionEast_0" arrivalPos="492.80" arrivalSpeed="7.67" duration="130.00" routeLength="994.90" waitingTime="0.00" waitingCount="0" stopTime="0.00" timeLoss="9.94" rerouteNo="0" devices="tripinfo_westEastBottom0.0 ssm_westEastBottom0.0" vType="carCustom" speedFactor="0.91" vaporized=""/>
    <tripinfo id="southEast.0" depart="2.00" departLane="southJunction_0" departPos="5.10" departSpeed="8.33" departDelay="0.95" arrival="138.00" arrivalLane="junctionEast_0" arrivalPos="492.80" arrivalSpeed="7.66" duration="136.00" routeLength="989.53" waitingTime="4.00" waitingCount="1" stopTime="0.00" timeLoss="16.37" rerouteNo="0" devices="tripinfo_southEast.0 ssm_southEast.0" vType="carCustom" speedFactor="1.00" vaporized=""/>
    <tripinfo id="southEast.1" depart="9.00" departLane="southJunction_0" departPos="5.10" departSpeed="7.68" departDelay="0.98" arrival="143.00" arrivalLane="junctionEast_0" arrivalPos="492.80" arrivalSpeed="7.95" duration="134.00" routeLength="989.53" waitingTime="0.00" waitingCount="0" stopTime="0.00" timeLoss="14.11" rerouteNo="0" devices="tripinfo_southEast.1 ssm_southEast.1" vType="carCustom" speedFactor="1.10" vaporized=""/>
    <tripinfo id="westEastTop.0" depart="12.00" departLane="westJunction_1" departPos="5.10" departSpeed="8.33" departDelay="0.52" arrival="143.00" arrivalLane="junctionEast_1" arrivalPos="492.80" arrivalSpeed="8.01" duration="131.00" routeLength="994.90" waitingTime="0.00" waitingCount="0" stopTime="0.00" timeLoss="10.68" rerouteNo="0" devices="tripinfo_westEastTop.0 ssm_westEastTop.0" vType="carCustom" speedFactor="1.12" vaporized=""/>
    <tripinfo id="westEastBottom0.1" depart="14.00" departLane="westJunction_0" departPos="5.10" departSpeed="7.65" departDelay="0.56" arrival="147.00" arrivalLane="junctionEast_0" arrivalPos="492.80" arrivalSpeed="8.15" duration="133.00" routeLength="994.90" waitingTime="0.00" waitingCount="0" stopTime="0.00" timeLoss="12.68" rerouteNo="0" devices="tripinfo_westEastBottom0.1 ssm_westEastBottom0.1" vType="carCustom" speedFactor="0.87" vaporized=""/>
    <tripinfo id="westEastTop.1" depart="15.00" departLane="westJunction_1" departPos="5.10" departSpeed="8.20" departDelay="0.31" arrival="153.00" arrivalLane="junctionEast_1" arrivalPos="492.80" arrivalSpeed="7.84" duration="138.00" routeLength="994.90" waitingTime="4.00" waitingCount="1" stopTime="0.00" timeLoss="18.48" rerouteNo="0" devices="tripinfo_westEastTop.1 ssm_westEastTop.1" vType="carCustom" speedFactor="1.03" vaporized=""/>
    <tripinfo id="westEastBottom0.2" depart="16.00" departLane="westJunction_0" departPos="5.10" departSpeed="7.47" departDelay="1.11" arrival="153.00" arrivalLane="junctionEast_0" arrivalPos="492.80" arrivalSpeed="7.67" duration="137.00" routeLength="994.90" waitingTime="2.00" waitingCount="1" stopTime="0.00" timeLoss="17.13" rerouteNo="0" devices="tripinfo_westEastBottom0.2 ssm_westEastBottom0.2" vType="carCustom" speedFactor="1.06" vaporized=""/>
    <tripinfo id="southNorth.1" depart="22.00" departLane="southJunction_1" departPos="5.10" departSpeed="7.25" departDelay="0.89" arrival="158.00" arrivalLane="junctionNorth_0" arrivalPos="492.80" arrivalSpeed="8.28" duration="136.00" routeLength="995.01" waitingTime="3.00" waitingCount="1" stopTime="0.00" timeLoss="16.06" rerouteNo="0" devices="tripinfo_southNorth.1 ssm_southNorth.1" vType="carCustom" speedFactor="1.10" vaporized=""/>
    <tripinfo id="westEastBottom0.3" depart="19.00" departLane="westJunction_0" departPos="5.10" departSpeed="5.97" departDelay="1.19" arrival="162.00" arrivalLane="junctionEast_0" arrivalPos="492.80" arrivalSpeed="7.44" duration="143.00" routeLength="994.90" waitingTime="5.00" waitingCount="1" stopTime="0.00" timeLoss="23.58" rerouteNo="0" devices="tripinfo_westEastBottom0.3 ssm_westEastBottom0.3" vType="carCustom" speedFactor="0.93" vaporized=""/>
    <tripinfo id="westEastTop.2" depart="20.00" departLane="westJunction_1" departPos="5.10" departSpeed="6.68" departDelay="0.50" arrival="164.00" arrivalLane="junctionEast_1" arrivalPos="492.80" arrivalSpeed="7.39" duration="144.00" routeLength="994.90" waitingTime="5.00" waitingCount="1" stopTime="0.00" timeLoss="23.72" rerouteNo="0" devices="tripinfo_westEastTop.2 ssm_westEastTop.2" vType="carCustom" speedFactor="0.92" vaporized=""/>
    <tripinfo id="westEastBottom0.4" depart="22.00" departLane="westJunction_0" departPos="5.10" departSpeed="4.96" departDelay="0.04" arrival="168.00" arrivalLane="junctionEast_0" arrivalPos="492.80" arrivalSpeed="7.76" duration="146.00" routeLength="994.90" waitingTime="1.00" waitingCount="1" stopTime="0.00" timeLoss="25.86" rerouteNo="0" devices="tripinfo_westEastBottom0.4 ssm_westEastBottom0.4" vType="carCustom" speedFactor="1.02" vaporized=""/>
    <tripinfo id="westEastTop.3" depart="29.00" departLane="westJunction_1" departPos="5.10" departSpeed="7.78" departDelay="0.93" arrival="168.00" arrivalLane="junctionEast_1" arrivalPos="492.80" arrivalSpeed="8.20" duration="139.00" routeLength="994.90" waitingTime="1.00" waitingCount="1" stopTime="0.00" timeLoss="18.94" rerouteNo="0" devices="tripinfo_westEastTop.3 ssm_westEastTop.3" vType="carCustom" speedFactor="1.04" vaporized=""/>
    <tripinfo id="southEast.2" depart="33.00" departLane="southJunction_0" departPos="5.10" departSpeed="7.64" departDelay="0.19" arrival="172.00" arrivalLane="junctionEast_0" arrivalPos="492.80" arrivalSpeed="7.94" duration="139.00" routeLength="989.53" waitingTime="2.00" waitingCount="1" stopTime="0.00" timeLoss="19.35" rerouteNo="0" devices="tripinfo_southEast.2 ssm_southEast.2" vType="carCustom" speedFactor="0.95" vaporized=""/>
    <tripinfo id="westEastTop.4" depart="34.00" departLane="westJunction_1" departPos="5.10" departSpeed="8.04" departDelay="0.59" arrival="172.00" arrivalLane="junctionEast_1" arrivalPos="492.80" arrivalSpeed="7.26" duration="138.00" routeLength="994.90" waitingTime="0.00" waitingCount="0" stopTime="0.00" timeLoss="18.16" rerouteNo="0" devices="tripinfo_westEastTop.4 ssm_westEastTop.4" vType="carCustom" speedFactor="1.05" vaporized=""/>
    <tripinfo id="southEast.3" depart="35.00" departLane="southJunction_0" departPos="5.10" departSpeed="7.68" departDelay="0.34" arrival="176.00" arrivalLane="junctionEast_1" arrivalPos="492.80" arrivalSpeed="8.28" duration="141.00" routeLength="989.53" waitingTime="0.00" waitingCount="0" stopTime="0.00" timeLoss="21.77" rerouteNo="0" devices="tripinfo_southEast.3 ssm_southEast.3" vType="carCustom" speedFactor="1.05" vaporized=""/>
    <tripinfo id="westEastBottom0.5" depart="35.00" departLane="westJunction_0" departPos="5.10" departSpeed="7.54" departDelay="0.34" arrival="176.00" arrivalLane="junctionEast_0" arrivalPos="492.80" arrivalSpeed="7.92" duration="141.00" routeLength="994.90" waitingTime="0.00" waitingCount="0" stopTime="0.00" timeLoss="20.96" rerouteNo="0" devices="tripinfo_westEastBottom0.5 ssm_westEastBottom0.5" vType="carCustom" speedFactor="1.11" vaporized=""/>
    <tripinfo id="westEastTop.5" depart="36.00" departLane="westJunction_1" departPos="5.10" departSpeed="7.56" departDelay="1.75" arrival="180.00" arrivalLane="junctionEast_1" arrivalPos="492.80" arrivalSpeed="8.23" duration="144.00" routeLength="994.90" waitingTime="3.00" waitingCount="1" stopTime="0.00" timeLoss="24.48" rerouteNo="0" devices="tripinfo_westEastTop.5 ssm_westEastTop.5" vType="carCustom" speedFactor="0.85" vaporized=""/>
    <tripinfo id="southEast.4" depart="38.00" departLane="southJunction_0" departPos="5.10" departSpeed="6.19" departDelay="1.45" arrival="180.00" arrivalLane="junctionEast_0" arrivalPos="492.80" arrivalSpeed="7.96" duration="142.00" routeLength="989.53" waitingTime="0.00" waitingCount="0" stopTime="0.00" timeLoss="22.54" rerouteNo="0" devices="tripinfo_southEast.4 ssm_southEast.4" vType="carCustom" speedFactor="1.02" vaporized=""/>
    <tripinfo id="southNorth.2" depart="52.00" departLane="southJunction_1" departPos="5.10" departSpeed="7.60" departDelay="0.99" arrival="183.00" arrivalLane="junctionNorth_0" arrivalPos="492.80" arrivalSpeed="7.13" duration="131.00" routeLength="995.01" waitingTime="0.00" waitingCount="0" stopTime="0.00" timeLoss="11.32" rerouteNo="0" devices="tripinfo_southNorth.2 ssm_southNorth.2" vType="carCustom" speedFactor="1.04" vaporized=""/>
    <tripinfo id="southEast.5" depart="39.00" departLane="southJunction_0" departPos="5.10" departSpeed="5.32" departDelay="1.79" arrival="184.00" arrivalLane="junctionEast_0" arrivalPos="492.80" arrivalSpeed="7.14" duration="145.00" routeLength="989.53" waitingTime="0.00" waitingCount="0" stopTime="0.00" timeLoss="25.54" rerouteNo="0" devices="tripinfo_southEast.5 ssm_southEast.5" vType="carCustom" speedFactor="1.00" vaporized=""/>
    <tripinfo id="westEastTop.6" depart="39.00" departLane="westJunction_1" departPos="5.10" departSpeed="4.91" departDelay="3.44" arrival="188.00" arrivalLane="junctionEast_0" arrivalPos="492.80" arrivalSpeed="7.49" duration="149.00" routeLength="994.90" waitingTime="5.00" waitingCount="1" stopTime="0.00" timeLoss="29.40" rerouteNo="0" devices="tripinfo_westEastTop.6 ssm_westEastTop.6" vType="carCustom" speedFactor="0.84" vaporized=""/>
    <tripinfo id="westEastTop.7" depart="44.00" departLane="westJunction_1" departPos="5.10" departSpeed="5.47" departDelay="0.59" arrival="199.00" arrivalLane="junctionEast_0" arrivalPos="492.80" arrivalSpeed="7.88" duration="155.00" routeLength="994.90" waitingTime="8.00" waitingCount="2" stopTime="0.00" timeLoss="34.69" rerouteNo="0" devices="tripinfo_westEastTop.7 ssm_westEastTop.7" vType="carCustom" speedFactor="0.90" vaporized=""/>
    <tripinfo id="westEastTop.8" depart="68.00" departLane="westJunction_1" departPos="5.10" departSpeed="7.98" departDelay="0.20" arrival="203.00" arrivalLane="junctionEast_0" arrivalPos="492.80" arrivalSpeed="7.96" duration="135.00" routeLength="994.90" waitingTime="0.00" waitingCount="0" stopTime="0.00" timeLoss="14.68" rerouteNo="0" devices="tripinfo_westEastTop.8 ssm_westEastTop.8" vType="carCustom" speedFactor="1.11" vaporized=""/>
    <tripinfo id="southEast.6" depart="71.00" departLane="southJunction_0" departPos="5.10" departSpeed="7.74" departDelay="0.85" arrival="203.00" arrivalLane="junctionEast_1" arrivalPos="492.80" arrivalSpeed="7.19" duration="132.00" routeLength="989.53" waitingTime="0.00" waitingCount="0" stopTime="0.00" timeLoss="12.56" rerouteNo="0" devices="tripinfo_southEast.6 ssm_southEast.6" vType="carCustom" speedFactor="1.07" vaporized=""/>
    <tripinfo id="southEast.7" depart="74.00" departLane="southJunction_0" departPos="5.10" departSpeed="7.13" departDelay="2.89" arrival="207.00" arrivalLane="junctionEast_0" arrivalPos="492.80" arrivalSpeed="7.18" duration="133.00" routeLength="989.53" waitingTime="0.00" waitingCount="0" stopTime="0.00" timeLoss="13.06" rerouteNo="0" devices="tripinfo_southEast.7 ssm_southEast.7" vType="carCustom" speedFactor="0.95" vaporized=""/>
    <tripinfo id="southNorth.3" depart="76.00" departLane="southJunction_1" departPos="5.10" departSpeed="7.23" departDelay="0.06" arrival="207.00" arrivalLane="junctionNorth_0" arrivalPos="492.80" arrivalSpeed="8.04" duration="131.00" routeLength="995.01" waitingTime="0.00" waitingCount="0" stopTime="0.00" timeLoss="10.67" rerouteNo="0" devices="tripinfo_southNorth.3 ssm_southNorth.3" vType="carCustom" speedFactor="1.18" vaporized=""/>
    <tripinfo id="westEastTop.9" depart="72.00" departLane="westJunction_1" departPos="5.10" departSpeed="7.51" departDelay="0.50" arrival="208.00" arrivalLane="junctionEast_1" arrivalPos="492.80" arrivalSpeed="7.62" duration="136.00" routeLength="994.90" waitingTime="1.00" waitingCount="1" stopTime="0.00" timeLoss="16.17" rerouteNo="0" devices="tripinfo_westEastTop.9 ssm_westEastTop.9" vType="carCustom" speedFactor="0.85" vaporized=""/>
    <tripinfo id="westEastBottom0.7" depart="73.00" departLane="westJunction_0" departPos="5.10" departSpeed="7.84" departDelay="0.04" arrival="211.00" arrivalLane="junctionEast_0" arrivalPos="492.80" arrivalSpeed="7.88" duration="138.00" routeLength="994.90" waitingTime="2.00" waitingCount="1" stopTime="0.00" timeLoss="17.97" rerouteNo="0" devices="tripinfo_westEastBottom0.7 ssm_westEastBottom0.7" vType="carCustom" speedFactor="0.91" vaporized=""/>
    <tripinfo id="westEastTop.10" depart="75.00" departLane="westJunction_1" departPos="5.10" departSpeed="7.07" departDelay="2.72" arrival="218.00" arrivalLane="junctionEast_1" arrivalPos="492.80" arrivalSpeed="8.11" duration="143.00" routeLength="994.90" waitingTime="4.00" waitingCount="1" stopTime="0.00" timeLoss="22.87" rerouteNo="0" devices="tripinfo_westEastTop.10 ssm_westEastTop.10" vType="carCustom" speedFactor="0.95" vaporized=""/>
    <tripinfo id="westEastBottom0.8" depart="79.00" departLane="westJunction_0" departPos="5.10" departSpeed="7.50" departDelay="0.68" arrival="218.00" arrivalLane="junctionEast_0" arrivalPos="492.80" arrivalSpeed="8.09" duration="139.00" routeLength="994.90" waitingTime="3.00" waitingCount="1" stopTime="0.00" timeLoss="19.20" rerouteNo="0" devices="tripinfo_westEastBottom0.8 ssm_westEastBottom0.8" vType="carCustom" speedFactor="0.97" vaporized=""/>
    <tripinfo id="westEastTop.11" depart="78.00" departLane="westJunction_1" departPos="5.10" departSpeed="5.89" departDelay="3.31" arrival="222.00" arrivalLane="junctionEast_0" arrivalPos="492.80" arrivalSpeed="7.88" duration="144.00" routeLength="994.90" waitingTime="1.00" waitingCount="1" stopTime="0.00" timeLoss="24.18" rerouteNo="0" devices="tripinfo_westEastTop.11 ssm_westEastTop.11" vType="carCustom" speedFactor="0.81" vaporized=""/>
    <tripinfo id="westEastBottom0.9" depart="81.00" departLane="westJunction_0" departPos="5.10" departSpeed="7.83" departDelay="2.25" arrival="224.00" arrivalLane="junctionEast_1" arrivalPos="492.80" arrivalSpeed="7.09" duration="143.00" routeLength="994.90" waitingTime="1.00" waitingCount="1" stopTime="0.00" timeLoss="23.30" rerouteNo="0" devices="tripinfo_westEastBottom0.9 ssm_westEastBottom0.9" vType="carCustom" speedFactor="1.01" vaporized=""/>
    <tripinfo id="southNorth.4" depart="96.00" departLane="southJunction_1" departPos="5.10" departSpeed="7.45" departDelay="0.22" arrival="225.00" arrivalLane="junctionNorth_0" arrivalPos="492.80" arrivalSpeed="7.35" duration="129.00" routeLength="995.01" waitingTime="0.00" waitingCount="0" stopTime="0.00" timeLoss="9.03" rerouteNo="0" devices="tripinfo_southNorth.4 ssm_southNorth.4" vType="carCustom" speedFactor="1.06" vaporized=""/>
    <tripinfo id="southEast.8" depart="96.00" departLane="southJunction_0" departPos="5.10" departSpeed="7.81" departDelay="0.72" arrival="227.00" arrivalLane="junctionEast_0" arrivalPos="492.80" arrivalSpeed="7.12" duration="131.00" routeLength="989.53" waitingTime="0.00" waitingCount="0" stopTime="0.00" timeLoss="11.63" rerouteNo="0" devices="tripinfo_southEast.8 ssm_southEast.8" vType="carCustom" speedFactor="0.93" vaporized=""/>
    <tripinfo id="westEastTop.12" depart="88.00" departLane="westJunction_1" departPos="5.10" departSpeed="7.32" departDelay="0.75" arrival="231.00" arrivalLane="junctionEast_0" arrivalPos="492.80" arrivalSpeed="7.29" duration="143.00" routeLength="994.90" waitingTime="4.00" waitingCount="1" stopTime="0.00" timeLoss="22.99" rerouteNo="0" devices="tripinfo_westEastTop.12 ssm_westEastTop.12" vType="carCustom" speedFactor="1.09" vaporized=""/>
    <tripinfo id="westEastBottom0.10" depart="84.00" departLane="westJunction_0" departPos="5.10" departSpeed="5.48" departDelay="4.96" arrival="232.00" arrivalLane="junctionEast_1" arrivalPos="492.80" arrivalSpeed="7.94" duration="148.00" routeLength="994.90" waitingTime="4.00" waitingCount="1" stopTime="0.00" timeLoss="27.77" rerouteNo="0" devices="tripinfo_westEastBottom0.10 ssm_westEastBottom0.10" vType="carCustom" speedFactor="1.02" vaporized=""/>
    <tripinfo id="westEastTop.13" depart="92.00" departLane="westJunction_1" departPos="5.10" departSpeed="7.43" departDelay="0.45" arrival="235.00" arrivalLane="junctionEast_0" arrivalPos="492.80" arrivalSpeed="7.72" duration="143.00" routeLength="994.90" waitingTime="2.00" waitingCount="1" stopTime="0.00" timeLoss="23.07" rerouteNo="0" devices="tripinfo_westEastTop.13 ssm_westEastTop.13" vType="carCustom" speedFactor="0.94" vaporized=""/>
    <tripinfo id="westEastBottom0.11" depart="88.00" departLane="westJunction_0" departPos="5.10" departSpeed="5.62" departDelay="0.39" arrival="236.00" arrivalLane="junctionEast_1" arrivalPos="492.80" arrivalSpeed="7.49" duration="148.00" routeLength="994.90" waitingTime="0.00" waitingCount="0" stopTime="0.00" timeLoss="28.12" rerouteNo="0" devices="tripinfo_westEastBottom0.11 ssm_westEastBottom0.11" vType="carCustom" speedFactor="1.11" vaporized=""/>
    <tripinfo id="southEast.9" depart="98.00" departLane="southJunction_0" departPos="5.10" departSpeed="7.50" departDelay="2.68" arrival="239.00" arrivalLane="junctionEast_0" arrivalPos="492.80" arrivalSpeed="8.15" duration="141.00" routeLength="989.53" waitingTime="2.00" waitingCount="1" stopTime="0.00" timeLoss="21.38" rerouteNo="0" devices="tripinfo_southEast.9 ssm_southEast.9" vType="carCustom" speedFactor="0.97" vaporized=""/>
    <tripinfo id="westEastTop.14" depart="96.00" departLane="westJunction_1" departPos="5.10" departSpeed="7.55" departDelay="0.17" arrival="240.00" arrivalLane="junctionEast_0" arrivalPos="492.80" arrivalSpeed="8.26" duration="144.00" routeLength="994.90" waitingTime="0.00" waitingCount="0" stopTime="0.00" timeLoss="23.82" rerouteNo="0" devices="tripinfo_westEastTop.14 ssm_westEastTop.14" vType="carCustom" speedFactor="1.01" vaporized=""/>
    <tripinfo id="westEastBottom0.12" depart="102.00" departLane="westJunction_0" departPos="5.10" departSpeed="7.60" departDelay="1.00" arrival="243.00" arrivalLane="junctionEast_0" arrivalPos="492.80" arrivalSpeed="8.13" duration="141.00" routeLength="994.90" waitingTime="0.00" waitingCount="0" stopTime="0.00" timeLoss="21.22" rerouteNo="0" devices="tripinfo_westEastBottom0.12 ssm_westEastBottom0.12" vType="carCustom" speedFactor="0.95" vaporized=""/>
    <tripinfo id="southEast.10" depart="111.00" departLane="southJunction_0" departPos="5.10" departSpeed="6.91" departDelay="0.56" arrival="244.00" arrivalLane="junctionEast_0" arrivalPos="492.80" arrivalSpeed="8.27" duration="133.00" routeLength="989.53" waitingTime="0.00" waitingCount="0" stopTime="0.00" timeLoss="13.34" rerouteNo="0" devices="tripinfo_southEast.10 ssm_southEast.10" vType="carCustom" speedFactor="1.01" vaporized=""/>
    <tripinfo id="westEastTop.15" depart="98.00" departLane="westJunction_1" departPos="5.10" departSpeed="7.26" departDelay="0.31" arrival="247.00" arrivalLane="junctionEast_0" arrivalPos="492.80" arrivalSpeed="7.56" duration="149.00" routeLength="994.90" waitingTime="4.00" waitingCount="1" stopTime="0.00" timeLoss="29.53" rerouteNo="0" devices="tripinfo_westEastTop.15 ssm_westEastTop.15" vType="carCustom" speedFactor="1.01" vaporized=""/>
    <tripinfo id="westEastTop.16" depart="101.00" departLane="westJunction_1" departPos="5.10" departSpeed="4.84" departDelay="2.48" arrival="251.00" arrivalLane="junctionEast_0" arrivalPos="492.80" arrivalSpeed="7.63" duration="150.00" routeLength="994.90" waitingTime="0.00" waitingCount="0" stopTime="0.00" timeLoss="30.55" rerouteNo="0" devices="tripinfo_westEastTop.16 ssm_westEastTop.16" vType="carCustom" speedFactor="0.96" vaporized=""/>
    <tripinfo id="westEastTop.17" depart="104.00" departLane="westJunction_1" departPos="5.10" departSpeed="4.81" departDelay="4.12" arrival="255.00" arrivalLane="junctionEast_0" arrivalPos="492.80" arrivalSpeed="7.24" duration="151.00" routeLength="994.90" waitingTime="0.00" waitingCount="0" stopTime="0.00" timeLoss="31.35" rerouteNo="0" devices="tripinfo_westEastTop.17 ssm_westEastTop.17" vType="carCustom" speedFactor="0.95" vaporized=""/>
    <tripinfo id="southNorth.5" depart="121.00" departLane="southJunction_1" departPos="5.10" departSpeed="8.07" departDelay="0.19" arrival="255.00" arrivalLane="junctionNorth_0" arrivalPos="492.80" arrivalSpeed="7.40" duration="134.00" routeLength="995.01" waitingTime="2.00" waitingCount="1" stopTime="0.00" timeLoss="14.50" rerouteNo="0" devices="tripinfo_southNorth.5 ssm_southNorth.5" vType="carCustom" speedFactor="1.16" vaporized=""/>
    <tripinfo id="westEastBottom0.13" depart="119.00" departLane="westJunction_0" departPos="5.10" departSpeed="7.91" departDelay="0.61" arrival="258.00" arrivalLane="junctionEast_0" arrivalPos="492.80" arrivalSpeed="7.93" duration="139.00" routeLength="994.90" waitingTime="0.00" waitingCount="0" stopTime="0.00" timeLoss="18.80" rerouteNo="0" devices="tripinfo_westEastBottom0.13 ssm_westEastBottom0.13" vType="carCustom" speedFactor="0.86" vaporized=""/>
    <tripinfo id="southEast.11" depart="118.00" departLane="southJunction_0" departPos="5.10" departSpeed="7.44" departDelay="0.81" arrival="260.00" arrivalLane="junctionEast_0" arrivalPos="492.80" arrivalSpeed="8.13" duration="142.00" routeLength="989.53" waitingTime="0.00" waitingCount="0" stopTime="0.00" timeLoss="23.01" rerouteNo="0" devices="tripinfo_southEast.11 ssm_southEast.11" vType="carCustom" speedFactor="1.01" vaporized=""/>
    <tripinfo id="westEastTop.18" depart="110.00" departLane="westJunction_1" departPos="5.10" departSpeed="6.00" departDelay="0.86" arrival="262.00" arrivalLane="junctionEast_0" arrivalPos="492.80" arrivalSpeed="7.26" duration="152.00" routeLength="994.90" waitingTime="2.00" waitingCount="1" stopTime="0.00" timeLoss="32.05" rerouteNo="0" devices="tripinfo_westEastTop.18 ssm_westEastTop.18" vType="carCustom" speedFactor="0.91" vaporized=""/>
    <tripinfo id="southEast.12" depart="124.00" departLane="southJunction_0" departPos="5.10" departSpeed="8.00" departDelay="0.45" arrival="265.00" arrivalLane="junctionEast_0" arrivalPos="492.80" arrivalSpeed="7.63" duration="141.00" routeLength="989.53" waitingTime="0.00" waitingCount="0" stopTime="0.00" timeLoss="21.26" rerouteNo="0" devices="tripinfo_southEast.12 ssm_southEast.12" vType="carCustom" speedFactor="1.11" vaporized=""/>
    <tripinfo id="southNorth.6" depart="127.00" departLane="southJunction_1" departPos="5.10" departSpeed="7.55" departDelay="0.85" arrival="265.00" arrivalLane="junctionNorth_0" arrivalPos="492.80" arrivalSpeed="8.03" duration="138.00" routeLength="995.01" waitingTime="4.00" waitingCount="1" stopTime="0.00" timeLoss="18.13" rerouteNo="0" devices="tripinfo_southNorth.6 ssm_southNorth.6" vType="carCustom" speedFactor="0.86" vaporized=""/>
    <tripinfo id="westEastBottom0.14" depart="127.00" departLane="westJunction_0" departPos="5.10" departSpeed="8.25" departDelay="0.16" arrival="266.00" arrivalLane="junctionEast_1" arrivalPos="492.80" arrivalSpeed="7.68" duration="139.00" routeLength="994.90" waitingTime="1.00" waitingCount="1" stopTime="0.00" timeLoss="18.89" rerouteNo="0" devices="tripinfo_westEastBottom0.14 ssm_westEastBottom0.14" vType="carCustom" speedFactor="1.08" vaporized=""/>
    <tripinfo id="westEastTop.19" depart="113.00" departLane="westJunction_1" departPos="5.10" departSpeed="6.86" departDelay="3.62" arrival="270.00" arrivalLane="junctionEast_1" arrivalPos="492.80" arrivalSpeed="7.49" duration="157.00" routeLength="994.90" waitingTime="5.00" waitingCount="1" stopTime="0.00" timeLoss="37.10" rerouteNo="0" devices="tripinfo_westEastTop.19 ssm_westEastTop.19" vType="carCustom" speedFactor="1.09" vaporized=""/>
    <tripinfo id="westEastBottom0.15" depart="137.00" departLane="westJunction_0" departPos="5.10" departSpeed="8.16" departDelay="0.61" arrival="270.00" arrivalLane="junctionEast_0" arrivalPos="492.80" arrivalSpeed="8.03" duration="133.00" routeLength="994.90" waitingTime="0.00" waitingCount="0" stopTime="0.00" timeLoss="13.06" rerouteNo="0" devices="tripinfo_westEastBottom0.15 ssm_westEastBottom0.15" vType="carCustom" speedFactor="1.11" vaporized=""/>
    <tripinfo id="westEastBottom0.21" depart="204.00" departLane="westJunction_0" departPos="5.10" departSpeed="6.50" departDelay="0.36" arrival="272.00" arrivalLane="junctionEast_0" arrivalPos="492.80" arrivalSpeed="4.44" duration="68.00" routeLength="994.90" waitingTime="0.00" waitingCount="0" stopTime="0.00" timeLoss="7.22" rerouteNo="0" devices="tripinfo_westEastBottom0.21 ssm_westEastBottom0.21" vType="carCustom" speedFactor="1.03" vaporized="teleport"/>
    <tripinfo id="westEastBottom0.16" depart="139.00" departLane="westJunction_0" departPos="5.10" departSpeed="7.91" departDelay="2.29" arrival="274.00" arrivalLane="junctionEast_0" arrivalPos="492.80" arrivalSpeed="7.09" duration="135.00" routeLength="994.90" waitingTime="0.00" waitingCount="0" stopTime="0.00" timeLoss="15.29" rerouteNo="0" devices="tripinfo_westEastBottom0.16 ssm_westEastBottom0.16" vType="carCustom" speedFactor="0.95" vaporized=""/>
    <tripinfo id="southNorth.7" depart="138.00" departLane="southJunction_1" departPos="5.10" departSpeed="7.19" departDelay="0.99" arrival="275.00" arrivalLane="junctionNorth_0" arrivalPos="492.80" arrivalSpeed="7.65" duration="137.00" routeLength="995.01" waitingTime="3.00" waitingCount="1" stopTime="0.00" timeLoss="17.56" rerouteNo="0" devices="tripinfo_southNorth.7 ssm_southNorth.7" vType="carCustom" speedFactor="1.15" vaporized=""/>
    <tripinfo id="southEast.13" depart="139.00" departLane="southJunction_0" departPos="5.10" departSpeed="8.14" departDelay="0.58" arrival="278.00" arrivalLane="junctionEast_0" arrivalPos="492.80" arrivalSpeed="7.77" duration="139.00" routeLength="989.53" waitingTime="3.00" waitingCount="1" stopTime="0.00" timeLoss="19.89" rerouteNo="0" devices="tripinfo_southEast.13 ssm_southEast.13" vType="carCustom" speedFactor="1.04" vaporized=""/>
    <tripinfo id="westEastTop.20" depart="118.00" departLane="westJunction_1" departPos="5.10" departSpeed="6.76" departDelay="0.70" arrival="280.00" arrivalLane="junctionEast_1" arrivalPos="492.80" arrivalSpeed="8.25" duration="162.00" routeLength="994.90" waitingTime="8.00" waitingCount="2" stopTime="0.00" timeLoss="41.98" rerouteNo="0" devices="tripinfo_westEastTop.20 ssm_westEastTop.20" vType="carCustom" speedFactor="0.93" vaporized=""/>
    <tripinfo id="westEastBottom0.17" depart="143.00" departLane="westJunction_0" departPos="5.10" departSpeed="6.44" departDelay="1.00" arrival="283.00" arrivalLane="junctionEast_0" arrivalPos="492.80" arrivalSpeed="8.17" duration="140.00" routeLength="994.90" waitingTime="1.00" waitingCount="1" stopTime="0.00" timeLoss="19.71" rerouteNo="0" devices="tripinfo_westEastBottom0.17 ssm_westEastBottom0.17" vType="carCustom" speedFactor="0.85" vaporized=""/>
    <tripinfo id="westEastTop.21" depart="122.00" departLane="westJunction_1" departPos="5.10" departSpeed="7.09" departDelay="0.50" arrival="286.00" arrivalLane="junctionEast_0" arrivalPos="492.80" arrivalSpeed="7.40" duration="164.00" routeLength="994.90" waitingTime="4.00" waitingCount="2" stopTime="0.00" timeLoss="44.42" rerouteNo="0" devices="tripinfo_westEastTop.21 ssm_westEastTop.21" vType="carCustom" speedFactor="1.09" vaporized=""/>