<?xml version="1.0" encoding="UTF-8"?>

<!-- generated on 2025-04-29 06:11:34 by Eclipse SUMO sumo Version 1.20.0
<configuration xmlns:xsi="http://www.w3.org/2001/XMLSchema-instance" xsi:noNamespaceSchemaLocation="http://sumo.dlr.de/xsd/sumoConfiguration.xsd">

    <input>
        <net-file value="nets/2lane_unprotected_right/2lane_unprotected_right.net.xml"/>
        <route-files value="nets/2lane_unprotected_right/2lane_unprotected_right.rou.xml"/>
    </input>

    <output>
        <tripinfo-output value="traces/transs50f0.5_s50_f1_random/0101_tripinfo.xml"/>
        <collision-output value="traces/transs50f0.5_s50_f1_random/0101_collisions.xml"/>
        <statistic-output value="traces/transs50f0.5_s50_f1_random/0101_statistics.xml"/>
    </output>

    <processing>
        <collision.action value="teleport"/>
        <collision.check-junctions value="true"/>
        <time-to-teleport value="-1"/>
        <waiting-time-memory value="1000"/>
        <max-depart-delay value="-1"/>
        <default.speeddev value="0.1"/>
    </processing>

    <report>
        <no-warnings value="true"/>
    </report>

    <ssm_device>
        <device.ssm.probability value="1.0"/>
        <device.ssm.measures value="BR"/>
        <device.ssm.file value="/Users/finn/Code/CausalKnowledgeTransfer-4-SafeRL/traces/transs50f0.5_s50_f1_random/0101_ssm.xml"/>
    </ssm_device>

    <traci_server>
        <remote-port value="63653"/>
    </traci_server>

    <random_number>
        <random value="true"/>
    </random_number>

</configuration>
-->

<tripinfos xmlns:xsi="http://www.w3.org/2001/XMLSchema-instance" xsi:noNamespaceSchemaLocation="http://sumo.dlr.de/xsd/tripinfo_file.xsd">
    <tripinfo id="westEastBottom0.0" depart="5.00" departLane="westJunction_0" departPos="5.10" departSpeed="27.78" departDelay="0.24" arrival="46.00" arrivalLane="junctionEast_0" arrivalPos="492.80" arrivalSpeed="27.64" duration="41.00" routeLength="994.90" waitingTime="0.00" waitingCount="0" stopTime="0.00" timeLoss="4.26" rerouteNo="0" devices="tripinfo_westEastBottom0.0 ssm_westEastBottom0.0" vType="carCustom" speedFactor="0.83" vaporized=""/>
    <tripinfo id="southNorth.0" depart="9.00" departLane="southJunction_1" departPos="5.10" departSpeed="27.78" departDelay="0.08" arrival="54.00" arrivalLane="junctionNorth_0" arrivalPos="492.80" arrivalSpeed="26.59" duration="45.00" routeLength="995.01" waitingTime="2.00" waitingCount="1" stopTime="0.00" timeLoss="8.32" rerouteNo="0" devices="tripinfo_southNorth.0 ssm_southNorth.0" vType="carCustom" speedFactor="1.01" vaporized=""/>
    <tripinfo id="southEast.0" depart="12.00" departLane="southJunction_0" departPos="5.10" departSpeed="27.78" departDelay="0.16" arrival="54.00" arrivalLane="junctionEast_0" arrivalPos="492.80" arrivalSpeed="27.26" duration="42.00" routeLength="989.53" waitingTime="0.00" waitingCount="0" stopTime="0.00" timeLoss="4.67" rerouteNo="0" devices="tripinfo_southEast.0 ssm_southEast.0" vType="carCustom" speedFactor="0.89" vaporized=""/>
    <tripinfo id="westEastTop.0" depart="13.00" departLane="westJunction_1" departPos="5.10" departSpeed="27.78" departDelay="0.94" arrival="59.00" arrivalLane="junctionEast_1" arrivalPos="492.80" arrivalSpeed="26.61" duration="46.00" routeLength="994.90" waitingTime="3.00" waitingCount="1" stopTime="0.00" timeLoss="9.00" rerouteNo="0" devices="tripinfo_westEastTop.0 ssm_westEastTop.0" vType="carCustom" speedFactor="0.96" vaporized=""/>
    <tripinfo id="westEastBottom0.1" depart="8.00" departLane="westJunction_0" departPos="5.10" departSpeed="27.66" departDelay="0.62" arrival="61.00" arrivalLane="junctionEast_0" arrivalPos="492.80" arrivalSpeed="26.87" duration="53.00" routeLength="994.90" waitingTime="0.00" waitingCount="0" stopTime="0.00" timeLoss="16.31" rerouteNo="0" devices="tripinfo_westEastBottom0.1 ssm_westEastBottom0.1" vType="carCustom" speedFactor="0.92" vaporized=""/>
    <tripinfo id="westEastTop.1" depart="20.00" departLane="westJunction_1" departPos="5.10" departSpeed="27.52" departDelay="0.60" arrival="65.00" arrivalLane="junctionEast_1" arrivalPos="492.80" arrivalSpeed="26.75" duration="45.00" routeLength="994.90" waitingTime="0.00" waitingCount="0" stopTime="0.00" timeLoss="9.16" rerouteNo="0" devices="tripinfo_westEastTop.1 ssm_westEastTop.1" vType="carCustom" speedFactor="1.19" vaporized=""/>
    <tripinfo id="southEast.1" depart="21.00" departLane="southJunction_0" departPos="5.10" departSpeed="26.32" departDelay="0.66" arrival="67.00" arrivalLane="junctionEast_0" arrivalPos="492.80" arrivalSpeed="26.98" duration="46.00" routeLength="989.53" waitingTime="0.00" waitingCount="0" stopTime="0.00" timeLoss="8.49" rerouteNo="0" devices="tripinfo_southEast.1 ssm_southEast.1" vType="carCustom" speedFactor="1.01" vaporized=""/>
    <tripinfo id="southNorth.1" depart="20.00" departLane="southJunction_1" departPos="5.10" departSpeed="26.56" departDelay="0.10" arrival="69.00" arrivalLane="junctionNorth_0" arrivalPos="492.80" arrivalSpeed="27.08" duration="49.00" routeLength="995.01" waitingTime="0.00" waitingCount="0" stopTime="0.00" timeLoss="12.48" rerouteNo="0" devices="tripinfo_southNorth.1 ssm_southNorth.1" vType="carCustom" speedFactor="1.07" vaporized=""/>
    <tripinfo id="westEastBottom0.2" depart="24.00" departLane="westJunction_0" departPos="5.10" departSpeed="18.24" departDelay="0.48" arrival="72.00" arrivalLane="junctionEast_1" arrivalPos="492.80" arrivalSpeed="27.30" duration="48.00" routeLength="994.90" waitingTime="0.00" waitingCount="0" stopTime="0.00" timeLoss="12.14" rerouteNo="0" devices="tripinfo_westEastBottom0.2 ssm_westEastBottom0.2" vType="carCustom" speedFactor="0.95" vaporized=""/>
    <tripinfo id="southNorth.2" depart="22.00" departLane="southJunction_1" departPos="5.10" departSpeed="26.96" departDelay="1.49" arrival="79.00" arrivalLane="junctionNorth_0" arrivalPos="492.80" arrivalSpeed="27.46" duration="57.00" routeLength="995.01" waitingTime="1.00" waitingCount="1" stopTime="0.00" timeLoss="20.77" rerouteNo="0" devices="tripinfo_southNorth.2 ssm_southNorth.2" vType="carCustom" speedFactor="0.80" vaporized=""/>
    <tripinfo id="southEast.2" depart="26.00" departLane="southJunction_0" departPos="5.10" departSpeed="27.66" departDelay="0.16" arrival="79.00" arrivalLane="junctionEast_0" arrivalPos="492.80" arrivalSpeed="26.56" duration="53.00" routeLength="989.53" waitingTime="0.00" waitingCount="0" stopTime="0.00" timeLoss="15.97" rerouteNo="0" devices="tripinfo_southEast.2 ssm_southEast.2" vType="carCustom" speedFactor="0.84" vaporized=""/>
    <tripinfo id="westEastTop.2" depart="24.00" departLane="westJunction_1" departPos="5.10" departSpeed="24.80" departDelay="0.83" arrival="85.00" arrivalLane="junctionEast_1" arrivalPos="492.80" arrivalSpeed="26.54" duration="61.00" routeLength="994.90" waitingTime="1.00" waitingCount="1" stopTime="0.00" timeLoss="24.30" rerouteNo="0" devices="tripinfo_westEastTop.2 ssm_westEastTop.2" vType="carCustom" speedFactor="0.98" vaporized=""/>
    <tripinfo id="southEast.3" depart="38.00" departLane="southJunction_0" departPos="5.10" departSpeed="21.04" departDelay="0.75" arrival="88.00" arrivalLane="junctionEast_0" arrivalPos="492.80" arrivalSpeed="26.70" duration="50.00" routeLength="989.53" waitingTime="0.00" waitingCount="0" stopTime="0.00" timeLoss="13.33" rerouteNo="0" devices="tripinfo_southEast.3 ssm_southEast.3" vType="carCustom" speedFactor="1.09" vaporized=""/>
    <tripinfo id="southNorth.3" depart="29.00" departLane="southJunction_1" departPos="5.10" departSpeed="19.59" departDelay="0.08" arrival="90.00" arrivalLane="junctionNorth_0" arrivalPos="492.80" arrivalSpeed="26.65" duration="61.00" routeLength="995.01" waitingTime="2.00" waitingCount="1" stopTime="0.00" timeLoss="24.40" rerouteNo="0" devices="tripinfo_southNorth.3 ssm_southNorth.3" vType="carCustom" speedFactor="0.96" vaporized=""/>
    <tripinfo id="westEastTop.3" depart="26.00" departLane="westJunction_1" departPos="5.10" departSpeed="20.68" departDelay="0.50" arrival="94.00" arrivalLane="junctionEast_1" arrivalPos="492.80" arrivalSpeed="26.86" duration="68.00" routeLength="994.90" waitingTime="3.00" waitingCount="1" stopTime="0.00" timeLoss="32.04" rerouteNo="0" devices="tripinfo_westEastTop.3 ssm_westEastTop.3" vType="carCustom" speedFactor="0.98" vaporized=""/>
    <tripinfo id="westEastTop.4" depart="29.00" departLane="westJunction_1" departPos="5.10" departSpeed="13.91" departDelay="0.24" arrival="100.00" arrivalLane="junctionEast_1" arrivalPos="492.80" arrivalSpeed="26.66" duration="71.00" routeLength="994.90" waitingTime="0.00" waitingCount="0" stopTime="0.00" timeLoss="35.19" rerouteNo="0" devices="tripinfo_westEastTop.4 ssm_westEastTop.4" vType="carCustom" speedFactor="1.03" vaporized=""/>
    <tripinfo id="southEast.4" depart="40.00" departLane="southJunction_0" departPos="5.10" departSpeed="25.51" departDelay="0.39" arrival="102.00" arrivalLane="junctionEast_0" arrivalPos="492.80" arrivalSpeed="27.06" duration="62.00" routeLength="989.53" waitingTime="1.00" waitingCount="1" stopTime="0.00" timeLoss="24.50" rerouteNo="0" devices="tripinfo_southEast.4 ssm_southEast.4" vType="carCustom" speedFactor="1.09" vaporized=""/>
    <tripinfo id="southNorth.4" depart="53.00" departLane="southJunction_1" departPos="5.10" departSpeed="12.39" departDelay="0.03" arrival="104.00" arrivalLane="junctionNorth_0" arrivalPos="492.80" arrivalSpeed="26.57" duration="51.00" routeLength="995.01" waitingTime="0.00" waitingCount="0" stopTime="0.00" timeLoss="15.13" rerouteNo="0" devices="tripinfo_southNorth.4 ssm_southNorth.4" vType="carCustom" speedFactor="0.96" vaporized=""/>
    <tripinfo id="westEastTop.5" depart="31.00" departLane="westJunction_1" departPos="5.10" departSpeed="10.73" departDelay="0.96" arrival="106.00" arrivalLane="junctionEast_1" arrivalPos="492.80" arrivalSpeed="27.52" duration="75.00" routeLength="994.90" waitingTime="0.00" waitingCount="0" stopTime="0.00" timeLoss="38.70" rerouteNo="0" devices="tripinfo_westEastTop.5 ssm_westEastTop.5" vType="carCustom" speedFactor="0.94" vaporized=""/>
    <tripinfo id="westEastTop.6" depart="49.00" departLane="westJunction_1" departPos="5.10" departSpeed="12.64" departDelay="0.50" arrival="112.00" arrivalLane="junctionEast_1" arrivalPos="492.80" arrivalSpeed="26.79" duration="63.00" routeLength="994.90" waitingTime="0.00" waitingCount="0" stopTime="0.00" timeLoss="26.82" rerouteNo="0" devices="tripinfo_westEastTop.6 ssm_westEastTop.6" vType="carCustom" speedFactor="0.85" vaporized=""/>
    <tripinfo id="westEastBottom0.3" depart="54.00" departLane="westJunction_0" departPos="5.10" departSpeed="27.78" departDelay="0.11" arrival="113.00" arrivalLane="junctionEast_0" arrivalPos="492.80" arrivalSpeed="27.27" duration="59.00" routeLength="994.90" waitingTime="5.00" waitingCount="1" stopTime="0.00" timeLoss="22.18" rerouteNo="0" devices="tripinfo_westEastBottom0.3 ssm_westEastBottom0.3" vType="carCustom" speedFactor="1.02" vaporized=""/>
    <tripinfo id="southNorth.5" depart="72.00" departLane="southJunction_1" departPos="5.10" departSpeed="19.80" departDelay="0.43" arrival="114.00" arrivalLane="junctionNorth_0" arrivalPos="492.80" arrivalSpeed="26.89" duration="42.00" routeLength="995.01" waitingTime="0.00" waitingCount="0" stopTime="0.00" timeLoss="5.64" rerouteNo="0" devices="tripinfo_southNorth.5 ssm_southNorth.5" vType="carCustom" speedFactor="0.88" vaporized=""/>
    <tripinfo id="westEastTop.7" depart="55.00" departLane="westJunction_1" departPos="5.10" departSpeed="19.57" departDelay="0.00" arrival="118.00" arrivalLane="junctionEast_1" arrivalPos="492.80" arrivalSpeed="27.51" duration="63.00" routeLength="994.90" waitingTime="0.00" waitingCount="0" stopTime="0.00" timeLoss="26.36" rerouteNo="0" devices="tripinfo_westEastTop.7 ssm_westEastTop.7" vType="carCustom" speedFactor="0.92" vaporized=""/>
    <tripinfo id="westEastBottom0.4" depart="56.00" departLane="westJunction_0" departPos="5.10" departSpeed="26.27" departDelay="1.26" arrival="118.00" arrivalLane="junctionEast_0" arrivalPos="492.80" arrivalSpeed="26.69" duration="62.00" routeLength="994.90" waitingTime="0.00" waitingCount="0" stopTime="0.00" timeLoss="25.99" rerouteNo="0" devices="tripinfo_westEastBottom0.4 ssm_westEastBottom0.4" vType="carCustom" speedFactor="1.11" vaporized=""/>
    <tripinfo id="southEast.5" depart="64.00" departLane="southJunction_0" departPos="5.10" departSpeed="13.61" departDelay="0.54" arrival="124.00" arrivalLane="junctionEast_0" arrivalPos="492.80" arrivalSpeed="27.49" duration="60.00" routeLength="989.53" waitingTime="1.00" waitingCount="1" stopTime="0.00" timeLoss="22.93" rerouteNo="0" devices="tripinfo_southEast.5 ssm_southEast.5" vType="carCustom" speedFactor="0.99" vaporized=""/>
    <tripinfo id="westEastTop.8" depart="71.00" departLane="westJunction_1" departPos="5.10" departSpeed="16.40" departDelay="0.59" arrival="124.00" arrivalLane="junctionEast_1" arrivalPos="492.80" arrivalSpeed="27.52" duration="53.00" routeLength="994.90" waitingTime="0.00" waitingCount="0" stopTime="0.00" timeLoss="16.29" rerouteNo="0" devices="tripinfo_westEastTop.8 ssm_westEastTop.8" vType="carCustom" speedFactor="1.03" vaporized=""/>
    <tripinfo id="westEastBottom0.5" depart="74.00" departLane="westJunction_0" departPos="5.10" departSpeed="16.60" departDelay="0.13" arrival="129.00" arrivalLane="junctionEast_1" arrivalPos="492.80" arrivalSpeed="27.75" duration="55.00" routeLength="994.90" waitingTime="0.00" waitingCount="0" stopTime="0.00" timeLoss="19.12" rerouteNo="0" devices="tripinfo_westEastBottom0.5 ssm_westEastBottom0.5" vType="carCustom" speedFactor="0.89" vaporized=""/>
    <tripinfo id="southEast.6" depart="78.00" departLane="southJunction_0" departPos="5.10" departSpeed="21.05" departDelay="0.83" arrival="131.00" arrivalLane="junctionEast_0" arrivalPos="492.80" arrivalSpeed="27.59" duration="53.00" routeLength="989.53" waitingTime="0.00" waitingCount="0" stopTime="0.00" timeLoss="15.85" rerouteNo="0" devices="tripinfo_southEast.6 ssm_southEast.6" vType="carCustom" speedFactor="1.15" vaporized=""/>
    <tripinfo id="westEastTop.9" depart="74.00" departLane="westJunction_1" departPos="5.10" departSpeed="22.22" departDelay="0.82" arrival="135.00" arrivalLane="junctionEast_1" arrivalPos="492.80" arrivalSpeed="27.49" duration="61.00" routeLength="994.90" waitingTime="0.00" waitingCount="0" stopTime="0.00" timeLoss="24.64" rerouteNo="0" devices="tripinfo_westEastTop.9 ssm_westEastTop.9" vType="carCustom" speedFactor="0.95" vaporized=""/>
    <tripinfo id="westEastTop.10" depart="80.00" departLane="westJunction_1" departPos="5.10" departSpeed="17.23" departDelay="0.94" arrival="141.00" arrivalLane="junctionEast_1" arrivalPos="492.80" arrivalSpeed="27.65" duration="61.00" routeLength="994.90" waitingTime="0.00" waitingCount="0" stopTime="0.00" timeLoss="24.29" rerouteNo="0" devices="tripinfo_westEastTop.10 ssm_westEastTop.10" vType="carCustom" speedFactor="0.89" vaporized=""/>
    <tripinfo id="westEastTop.11" depart="83.00" departLane="westJunction_1" departPos="5.10" departSpeed="16.45" departDelay="0.88" arrival="146.00" arrivalLane="junctionEast_1" arrivalPos="492.80" arrivalSpeed="26.59" duration="63.00" routeLength="994.90" waitingTime="0.00" waitingCount="0" stopTime="0.00" timeLoss="27.09" rerouteNo="0" devices="tripinfo_westEastTop.11 ssm_westEastTop.11" vType="carCustom" speedFactor="1.07" vaporized=""/>
    <tripinfo id="southNorth.6" depart="103.00" departLane="southJunction_1" departPos="5.10" departSpeed="27.78" departDelay="0.73" arrival="150.00" arrivalLane="junctionNorth_0" arrivalPos="492.80" arrivalSpeed="27.68" duration="47.00" routeLength="995.01" waitingTime="0.00" waitingCount="0" stopTime="0.00" timeLoss="10.91" rerouteNo="0" devices="tripinfo_southNorth.6 ssm_southNorth.6" vType="carCustom" speedFactor="1.01" vaporized=""/>
    <tripinfo id="southEast.7" depart="97.00" departLane="southJunction_0" departPos="5.10" departSpeed="17.92" departDelay="1.00" arrival="152.00" arrivalLane="junctionEast_1" arrivalPos="492.80" arrivalSpeed="26.87" duration="55.00" routeLength="989.53" waitingTime="0.00" waitingCount="0" stopTime="0.00" timeLoss="17.11" rerouteNo="0" devices="tripinfo_southEast.7 ssm_southEast.7" vType="carCustom" speedFactor="1.07" vaporized=""/>
    <tripinfo id="westEastBottom0.6" depart="90.00" departLane="westJunction_0" departPos="5.10" departSpeed="7.70" departDelay="0.34" arrival="157.00" arrivalLane="junctionEast_1" arrivalPos="492.80" arrivalSpeed="27.72" duration="67.00" routeLength="994.90" waitingTime="0.00" waitingCount="0" stopTime="0.00" timeLoss="30.22" rerouteNo="0" devices="tripinfo_westEastBottom0.6 ssm_westEastBottom0.6" vType="carCustom" speedFactor="1.03" vaporized=""/>
    <tripinfo id="westEastTop.12" depart="89.00" departLane="westJunction_1" departPos="5.10" departSpeed="13.40" departDelay="0.48" arrival="161.00" arrivalLane="junctionEast_1" arrivalPos="492.80" arrivalSpeed="27.25" duration="72.00" routeLength="994.90" waitingTime="0.00" waitingCount="0" stopTime="0.00" timeLoss="36.08" rerouteNo="0" devices="tripinfo_westEastTop.12 ssm_westEastTop.12" vType="carCustom" speedFactor="1.09" vaporized=""/>
    <tripinfo id="southNorth.7" depart="105.00" departLane="southJunction_1" departPos="5.10" departSpeed="26.66" departDelay="1.70" arrival="162.00" arrivalLane="junctionNorth_0" arrivalPos="492.80" arrivalSpeed="27.62" duration="57.00" routeLength="995.01" waitingTime="1.00" waitingCount="1" stopTime="0.00" timeLoss="20.59" rerouteNo="0" devices="tripinfo_southNorth.7 ssm_southNorth.7" vType="carCustom" speedFactor="0.91" vaporized=""/>
    <tripinfo id="westEastBottom0.8" depart="113.00" departLane="westJunction_0" departPos="5.10" departSpeed="27.78" departDelay="0.56" arrival="167.00" arrivalLane="junctionEast_1" arrivalPos="492.80" arrivalSpeed="27.42" duration="54.00" routeLength="994.90" waitingTime="0.00" waitingCount="0" stopTime="0.00" timeLoss="17.73" rerouteNo="0" devices="tripinfo_westEastBottom0.8 ssm_westEastBottom0.8" vType="carCustom" speedFactor="0.97" vaporized=""/>
    <tripinfo id="southNorth.8" depart="111.00" departLane="southJunction_1" departPos="5.10" departSpeed="18.64" departDelay="0.08" arrival="171.00" arrivalLane="junctionNorth_0" arrivalPos="492.80" arrivalSpeed="27.10" duration="60.00" routeLength="995.01" waitingTime="2.00" waitingCount="1" stopTime="0.00" timeLoss="23.73" rerouteNo="0" devices="tripinfo_southNorth.8 ssm_southNorth.8" vType="carCustom" speedFactor="0.97" vaporized=""/>
    <tripinfo id="westEastBottom0.7" depart="101.00" departLane="westJunction_0" departPos="5.10" departSpeed="18.00" departDelay="0.57" arrival="172.00" arrivalLane="junctionEast_1" arrivalPos="492.80" arrivalSpeed="27.03" duration="71.00" routeLength="994.90" waitingTime="2.00" waitingCount="1" stopTime="0.00" timeLoss="34.84" rerouteNo="0" devices="tripinfo_westEastBottom0.7 ssm_westEastBottom0.7" vType="carCustom" speedFactor="1.18" vaporized=""/>
    <tripinfo id="southEast.8" depart="119.00" departLane="southJunction_0" departPos="5.10" departSpeed="10.79" departDelay="0.39" arrival="177.00" arrivalLane="junctionEast_1" arrivalPos="492.80" arrivalSpeed="26.62" duration="58.00" routeLength="989.53" waitingTime="0.00" waitingCount="0" stopTime="0.00" timeLoss="20.57" rerouteNo="0" devices="tripinfo_southEast.8 ssm_southEast.8" vType="carCustom" speedFactor="0.98" vaporized=""/>
    <tripinfo id="southNorth.9" depart="119.00" departLane="southJunction_1" departPos="5.10" departSpeed="18.95" departDelay="0.59" arrival="181.00" arrivalLane="junctionNorth_0" arrivalPos="492.80" arrivalSpeed="27.57" duration="62.00" routeLength="995.01" waitingTime="4.00" waitingCount="1" stopTime="0.00" timeLoss="26.03" rerouteNo="0" devices="tripinfo_southNorth.9 ssm_southNorth.9" vType="carCustom" speedFactor="0.99" vaporized=""/>
    <tripinfo id="westEastTop.13" depart="107.00" departLane="westJunction_1" departPos="5.10" departSpeed="16.65" departDelay="0.12" arrival="182.00" arrivalLane="junctionEast_1" arrivalPos="492.80" arrivalSpeed="27.22" duration="75.00" routeLength="994.90" waitingTime="4.00" waitingCount="1" stopTime="0.00" timeLoss="39.13" rerouteNo="0" devices="tripinfo_westEastTop.13 ssm_westEastTop.13" vType="carCustom" speedFactor="1.12" vaporized=""/>
    <tripinfo id="southEast.9" depart="121.00" departLane="southJunction_0" departPos="5.10" departSpeed="14.89" departDelay="1.65" arrival="187.00" arrivalLane="junctionEast_1" arrivalPos="492.80" arrivalSpeed="26.75" duration="66.00" routeLength="989.53" waitingTime="0.00" waitingCount="0" stopTime="0.00" timeLoss="29.59" rerouteNo="0" devices="tripinfo_southEast.9 ssm_southEast.9" vType="carCustom" speedFactor="0.87" vaporized=""/>
    <tripinfo id="southNorth.10" depart="121.00" departLane="southJunction_1" departPos="5.10" departSpeed="19.75" departDelay="1.94" arrival="187.00" arrivalLane="junctionNorth_0" arrivalPos="492.80" arrivalSpeed="27.25" duration="66.00" routeLength="995.01" waitingTime="0.00" waitingCount="0" stopTime="0.00" timeLoss="29.99" rerouteNo="0" devices="tripinfo_southNorth.10 ssm_southNorth.10" vType="carCustom" speedFactor="1.25" vaporized=""/>
    <tripinfo id="westEastBottom0.10" depart="129.00" departLane="westJunction_0" departPos="5.10" departSpeed="18.20" departDelay="0.54" arrival="190.00" arrivalLane="junctionEast_0" arrivalPos="492.80" arrivalSpeed="26.62" duration="61.00" routeLength="994.90" waitingTime="0.00" waitingCount="0" stopTime="0.00" timeLoss="24.57" rerouteNo="0" devices="tripinfo_westEastBottom0.10 ssm_westEastBottom0.10" vType="carCustom" speedFactor="0.88" vaporized=""/>
    <tripinfo id="westEastTop.14" depart="109.00" departLane="westJunction_1" departPos="5.10" departSpeed="17.18" departDelay="1.36" arrival="194.00" arrivalLane="junctionEast_0" arrivalPos="492.80" arrivalSpeed="27.69" duration="85.00" routeLength="994.90" waitingTime="0.00" waitingCount="0" stopTime="0.00" timeLoss="48.58" rerouteNo="0" devices="tripinfo_westEastTop.14 ssm_westEastTop.14" vType="carCustom" speedFactor="0.87" vaporized=""/>
    <tripinfo id="westEastTop.15" depart="111.00" departLane="westJunction_1" departPos="5.10" departSpeed="12.41" departDelay="1.24" arrival="194.00" arrivalLane="junctionEast_1" arrivalPos="492.80" arrivalSpeed="27.25" duration="83.00" routeLength="994.90" waitingTime="1.00" waitingCount="1" stopTime="0.00" timeLoss="46.71" rerouteNo="0" devices="tripinfo_westEastTop.15 ssm_westEastTop.15" vType="carCustom" speedFactor="1.01" vaporized=""/>
    <tripinfo id="southNorth.11" depart="134.00" departLane="southJunction_1" departPos="5.10" departSpeed="16.52" departDelay="0.43" arrival="195.00" arrivalLane="junctionNorth_0" arrivalPos="492.80" arrivalSpeed="27.50" duration="61.00" routeLength="995.01" waitingTime="2.00" waitingCount="1" stopTime="0.00" timeLoss="25.12" rerouteNo="0" devices="tripinfo_southNorth.11 ssm_southNorth.11" vType="carCustom" speedFactor="1.13" vaporized=""/>
    <tripinfo id="westEastTop.16" depart="118.00" departLane="westJunction_1" departPos="5.10" departSpeed="9.37" departDelay="0.69" arrival="199.00" arrivalLane="junctionEast_1" arrivalPos="492.80" arrivalSpeed="27.28" duration="81.00" routeLength="994.90" waitingTime="0.00" waitingCount="0" stopTime="0.00" timeLoss="45.04" rerouteNo="0" devices="tripinfo_westEastTop.16 ssm_westEastTop.16" vType="carCustom" speedFactor="1.16" vaporized=""/>
    <tripinfo id="southEast.10" depart="123.00" departLane="southJunction_0" departPos="5.10" departSpeed="10.69" departDelay="3.56" arrival="199.00" arrivalLane="junctionEast_0" arrivalPos="492.80" arrivalSpeed="26.97" duration="76.00" routeLength="989.53" waitingTime="0.00" waitingCount="0" stopTime="0.00" timeLoss="38.09" rerouteNo="0" devices="tripinfo_southEast.10 ssm_southEast.10" vType="carCustom" speedFactor="1.06" vaporized=""/>
    <tripinfo id="southEast.11" depart="126.00" departLane="southJunction_0" departPos="5.10" departSpeed="8.82" departDelay="0.31" arrival="203.00" arrivalLane="junctionEast_0" arrivalPos="492.80" arrivalSpeed="26.95" duration="77.00" routeLength="989.53" waitingTime="0.00" waitingCount="0" stopTime="0.00" timeLoss="39.89" rerouteNo="0" devices="tripinfo_southEast.11 ssm_southEast.11" vType="carCustom" speedFactor="0.96" vaporized=""/>
    <tripinfo id="westEastBottom0.9" depart="127.00" departLane="westJunction_0" departPos="5.10" departSpeed="15.69" departDelay="0.83" arrival="205.00" arrivalLane="junctionEast_1" arrivalPos="492.80" arrivalSpeed="27.10" duration="78.00" routeLength="994.90" waitingTime="0.00" waitingCount="0" stopTime="0.00" timeLoss="41.24" rerouteNo="0" devices="tripinfo_westEastBottom0.9 ssm_westEastBottom0.9" vType="carCustom" speedFactor="1.07" vaporized=""/>
    <tripinfo id="southNorth.12" depart="137.00" departLane="southJunction_1" departPos="5.10" departSpeed="15.68" departDelay="0.01" arrival="206.00" arrivalLane="junctionNorth_0" arrivalPos="492.80" arrivalSpeed="27.73" duration="69.00" routeLength="995.01" waitingTime="4.00" waitingCount="1" stopTime="0.00" timeLoss="32.79" rerouteNo="0" devices="tripinfo_southNorth.12 ssm_southNorth.12" vType="carCustom" speedFactor="1.15" vaporized=""/>
    <tripinfo id="southEast.12" depart="129.00" departLane="southJunction_0" departPos="5.10" departSpeed="10.30" departDelay="0.35" arrival="208.00" arrivalLane="junctionEast_0" arrivalPos="492.80" arrivalSpeed="26.84" duration="79.00" routeLength="989.53" waitingTime="0.00" waitingCount="0" stopTime="0.00" timeLoss="42.47" rerouteNo="0" devices="tripinfo_southEast.12 ssm_southEast.12" vType="carCustom" speedFactor="0.89" vaporized=""/>
    <tripinfo id="westEastTop.17" depart="128.00" departLane="westJunction_1" departPos="5.10" departSpeed="11.47" departDelay="0.26" arrival="210.00" arrivalLane="junctionEast_1" arrivalPos="492.80" arrivalSpeed="27.17" duration="82.00" routeLength="994.90" waitingTime="0.00" waitingCount="0" stopTime="0.00" timeLoss="45.47" rerouteNo="0" devices="tripinfo_westEastTop.17 ssm_westEastTop.17" vType="carCustom" speedFactor="0.97" vaporized=""/>
    <tripinfo id="southNorth.13" depart="139.00" departLane="southJunction_1" departPos="5.10" departSpeed="12.13" departDelay="0.98" arrival="212.00" arrivalLane="junctionNorth_0" arrivalPos="492.80" arrivalSpeed="27.38" duration="73.00" routeLength="995.01" waitingTime="0.00" waitingCount="0" stopTime="0.00" timeLoss="36.89" rerouteNo="0" devices="tripinfo_southNorth.13 ssm_southNorth.13" vType="carCustom" speedFactor="1.05" vaporized=""/>
    <tripinfo id="westEastBottom0.11" depart="149.00" departLane="westJunction_0" departPos="5.10" departSpeed="16.75" departDelay="0.52" arrival="213.00" arrivalLane="junctionEast_0" arrivalPos="492.80" arrivalSpeed="27.03" duration="64.00" routeLength="994.90" waitingTime="0.00" waitingCount="0" stopTime="0.00" timeLoss="27.75" rerouteNo="0" devices="tripinfo_westEastBottom0.11 ssm_westEastBottom0.11" vType="carCustom" speedFactor="0.84" vaporized=""/>
    <tripinfo id="westEastTop.18" depart="134.00" departLane="westJunction_1" departPos="5.10" departSpeed="10.50" departDelay="0.67" arrival="215.00" arrivalLane="junctionEast_1" arrivalPos="492.80" arrivalSpeed="26.51" duration="81.00" routeLength="994.90" waitingTime="0.00" waitingCount="0" stopTime="0.00" timeLoss="44.43" rerouteNo="0" devices="tripinfo_westEastTop.18 ssm_westEastTop.18" vType="carCustom" speedFactor="0.88" vaporized=""/>
    <tripinfo id="southEast.13" depart="137.00" departLane="southJunction_0" departPos="5.10" departSpeed="12.87" departDelay="0.40" arrival="218.00" arrivalLane="junctionEast_0" arrivalPos="492.80" arrivalSpeed="26.67" duration="81.00" routeLength="989.53" waitingTime="0.00" waitingCount="0" stopTime="0.00" timeLoss="44.25" rerouteNo="0" devices="tripinfo_southEast.13 ssm_southEast.13" vType="carCustom" speedFactor="1.08" vaporized=""/>
    <tripinfo id="southNorth.14" depart="155.00" departLane="southJunction_1" departPos="5.10" departSpeed="14.18" departDelay="0.28" arrival="218.00" arrivalLane="junctionNorth_0" arrivalPos="492.80" arrivalSpeed="27.32" duration="63.00" routeLength="995.01" waitingTime="1.00" waitingCount="1" stopTime="0.00" timeLoss="27.16" rerouteNo="0" devices="tripinfo_southNorth.14 ssm_southNorth.14" vType="carCustom" speedFactor="0.98" vaporized=""/>
    <tripinfo id="westEastTop.19" depart="145.00" departLane="westJunction_1" departPos="5.10" departSpeed="11.96" departDelay="0.61" arrival="220.00" arrivalLane="junctionEast_1" arrivalPos="492.80" arrivalSpeed="26.74" duration="75.00" routeLength="994.90" waitingTime="0.00" waitingCount="0" stopTime="0.00" timeLoss="38.60" rerouteNo="0" devices="tripinfo_westEastTop.19 ssm_westEastTop.19" vType="carCustom" speedFactor="1.03" vaporized=""/>
    <tripinfo id="westEastBottom0.12" depart="171.00" departLane="westJunction_0" departPos="5.10" departSpeed="17.97" departDelay="0.16" arrival="225.00" arrivalLane="junctionEast_1" arrivalPos="492.80" arrivalSpeed="27.54" duration="54.00" routeLength="994.90" waitingTime="0.00" waitingCount="0" stopTime="0.00" timeLoss="18.18" rerouteNo="0" devices="tripinfo_westEastBottom0.12 ssm_westEastBottom0.12" vType="carCustom" speedFactor="1.00" vaporized=""/>
    <tripinfo id="southNorth.15" depart="172.00" departLane="southJunction_1" departPos="5.10" departSpeed="15.60" departDelay="0.24" arrival="227.00" arrivalLane="junctionNorth_0" arrivalPos="492.80" arrivalSpeed="27.46" duration="55.00" routeLength="995.01" waitingTime="0.00" waitingCount="0" stopTime="0.00" timeLoss="18.78" rerouteNo="0" devices="tripinfo_southNorth.15 ssm_southNorth.15" vType="carCustom" speedFactor="0.97" vaporized=""/>