<?xml version="1.0" encoding="UTF-8"?>

<!-- generated on 2025-04-29 06:37:58 by Eclipse SUMO sumo Version 1.20.0
<configuration xmlns:xsi="http://www.w3.org/2001/XMLSchema-instance" xsi:noNamespaceSchemaLocation="http://sumo.dlr.de/xsd/sumoConfiguration.xsd">

    <input>
        <net-file value="nets/2lane_unprotected_right/2lane_unprotected_right.net.xml"/>
        <route-files value="nets/2lane_unprotected_right/2lane_unprotected_right.rou.xml"/>
    </input>

    <output>
        <tripinfo-output value="traces/transs50f0.5_s50_f1_random/0103_tripinfo.xml"/>
        <collision-output value="traces/transs50f0.5_s50_f1_random/0103_collisions.xml"/>
        <statistic-output value="traces/transs50f0.5_s50_f1_random/0103_statistics.xml"/>
    </output>

    <processing>
        <collision.action value="teleport"/>
        <collision.check-junctions value="true"/>
        <time-to-teleport value="-1"/>
        <waiting-time-memory value="1000"/>
        <max-depart-delay value="-1"/>
        <default.speeddev value="0.1"/>
    </processing>

    <report>
        <no-warnings value="true"/>
    </report>

    <ssm_device>
        <device.ssm.probability value="1.0"/>
        <device.ssm.measures value="BR"/>
        <device.ssm.file value="/Users/finn/Code/CausalKnowledgeTransfer-4-SafeRL/traces/transs50f0.5_s50_f1_random/0103_ssm.xml"/>
    </ssm_device>

    <traci_server>
        <remote-port value="63678"/>
    </traci_server>

    <random_number>
        <random value="true"/>
    </random_number>

</configuration>
-->

<tripinfos xmlns:xsi="http://www.w3.org/2001/XMLSchema-instance" xsi:noNamespaceSchemaLocation="http://sumo.dlr.de/xsd/tripinfo_file.xsd">
    <tripinfo id="westEastTop.0" depart="2.00" departLane="westJunction_1" departPos="5.10" departSpeed="27.78" departDelay="0.87" arrival="39.00" arrivalLane="junctionEast_1" arrivalPos="492.80" arrivalSpeed="27.68" duration="37.00" routeLength="994.90" waitingTime="0.00" waitingCount="0" stopTime="0.00" timeLoss="0.79" rerouteNo="0" devices="tripinfo_westEastTop.0 ssm_westEastTop.0" vType="carCustom" speedFactor="0.91" vaporized=""/>
    <tripinfo id="westEastTop.1" depart="4.00" departLane="westJunction_1" departPos="5.10" departSpeed="27.13" departDelay="1.86" arrival="49.00" arrivalLane="junctionEast_1" arrivalPos="492.80" arrivalSpeed="27.08" duration="45.00" routeLength="994.90" waitingTime="0.00" waitingCount="0" stopTime="0.00" timeLoss="8.57" rerouteNo="0" devices="tripinfo_westEastTop.1 ssm_westEastTop.1" vType="carCustom" speedFactor="1.06" vaporized=""/>
    <tripinfo id="southNorth.0" depart="7.00" departLane="southJunction_1" departPos="5.10" departSpeed="27.78" departDelay="0.14" arrival="55.00" arrivalLane="junctionNorth_0" arrivalPos="492.80" arrivalSpeed="27.52" duration="48.00" routeLength="995.01" waitingTime="5.00" waitingCount="1" stopTime="0.00" timeLoss="10.97" rerouteNo="0" devices="tripinfo_southNorth.0 ssm_southNorth.0" vType="carCustom" speedFactor="0.94" vaporized=""/>
    <tripinfo id="westEastBottom0.0" depart="16.00" departLane="westJunction_0" departPos="5.10" departSpeed="27.78" departDelay="0.53" arrival="62.00" arrivalLane="junctionEast_0" arrivalPos="492.80" arrivalSpeed="26.90" duration="46.00" routeLength="994.90" waitingTime="0.00" waitingCount="0" stopTime="0.00" timeLoss="10.09" rerouteNo="0" devices="tripinfo_westEastBottom0.0 ssm_westEastBottom0.0" vType="carCustom" speedFactor="0.85" vaporized=""/>
    <tripinfo id="westEastTop.2" depart="10.00" departLane="westJunction_1" departPos="5.10" departSpeed="16.63" departDelay="0.13" arrival="63.00" arrivalLane="junctionEast_1" arrivalPos="492.80" arrivalSpeed="27.42" duration="53.00" routeLength="994.90" waitingTime="0.00" waitingCount="0" stopTime="0.00" timeLoss="17.02" rerouteNo="0" devices="tripinfo_westEastTop.2 ssm_westEastTop.2" vType="carCustom" speedFactor="0.85" vaporized=""/>
    <tripinfo id="southNorth.1" depart="15.00" departLane="southJunction_1" departPos="5.10" departSpeed="27.18" departDelay="0.37" arrival="70.00" arrivalLane="junctionNorth_0" arrivalPos="492.80" arrivalSpeed="27.76" duration="55.00" routeLength="995.01" waitingTime="5.00" waitingCount="1" stopTime="0.00" timeLoss="18.26" rerouteNo="0" devices="tripinfo_southNorth.1 ssm_southNorth.1" vType="carCustom" speedFactor="0.96" vaporized=""/>
    <tripinfo id="southEast.0" depart="25.00" departLane="southJunction_0" departPos="5.10" departSpeed="27.78" departDelay="0.11" arrival="74.00" arrivalLane="junctionEast_0" arrivalPos="492.80" arrivalSpeed="26.70" duration="49.00" routeLength="989.53" waitingTime="0.00" waitingCount="0" stopTime="0.00" timeLoss="11.76" rerouteNo="0" devices="tripinfo_southEast.0 ssm_southEast.0" vType="carCustom" speedFactor="0.93" vaporized=""/>
    <tripinfo id="southNorth.2" depart="17.00" departLane="southJunction_1" departPos="5.10" departSpeed="24.33" departDelay="0.75" arrival="77.00" arrivalLane="junctionNorth_0" arrivalPos="492.80" arrivalSpeed="27.70" duration="60.00" routeLength="995.01" waitingTime="0.00" waitingCount="0" stopTime="0.00" timeLoss="24.15" rerouteNo="0" devices="tripinfo_southNorth.2 ssm_southNorth.2" vType="carCustom" speedFactor="0.88" vaporized=""/>
    <tripinfo id="westEastTop.3" depart="18.00" departLane="westJunction_1" departPos="5.10" departSpeed="17.13" departDelay="0.87" arrival="79.00" arrivalLane="junctionEast_1" arrivalPos="492.80" arrivalSpeed="27.72" duration="61.00" routeLength="994.90" waitingTime="2.00" waitingCount="1" stopTime="0.00" timeLoss="25.15" rerouteNo="0" devices="tripinfo_westEastTop.3 ssm_westEastTop.3" vType="carCustom" speedFactor="1.10" vaporized=""/>
    <tripinfo id="westEastBottom0.1" depart="27.00" departLane="westJunction_0" departPos="5.10" departSpeed="18.95" departDelay="0.95" arrival="82.00" arrivalLane="junctionEast_0" arrivalPos="492.80" arrivalSpeed="27.76" duration="55.00" routeLength="994.90" waitingTime="0.00" waitingCount="0" stopTime="0.00" timeLoss="18.42" rerouteNo="0" devices="tripinfo_westEastBottom0.1 ssm_westEastBottom0.1" vType="carCustom" speedFactor="1.05" vaporized=""/>
    <tripinfo id="southNorth.3" depart="22.00" departLane="southJunction_1" departPos="5.10" departSpeed="15.01" departDelay="0.97" arrival="85.00" arrivalLane="junctionNorth_0" arrivalPos="492.80" arrivalSpeed="27.42" duration="63.00" routeLength="995.01" waitingTime="0.00" waitingCount="0" stopTime="0.00" timeLoss="26.97" rerouteNo="0" devices="tripinfo_southNorth.3 ssm_southNorth.3" vType="carCustom" speedFactor="0.81" vaporized=""/>
    <tripinfo id="southEast.1" depart="30.00" departLane="southJunction_0" departPos="5.10" departSpeed="23.68" departDelay="0.98" arrival="89.00" arrivalLane="junctionEast_0" arrivalPos="492.80" arrivalSpeed="27.72" duration="59.00" routeLength="989.53" waitingTime="0.00" waitingCount="0" stopTime="0.00" timeLoss="22.39" rerouteNo="0" devices="tripinfo_southEast.1 ssm_southEast.1" vType="carCustom" speedFactor="0.97" vaporized=""/>
    <tripinfo id="westEastTop.4" depart="22.00" departLane="westJunction_1" departPos="5.10" departSpeed="15.76" departDelay="0.50" arrival="90.00" arrivalLane="junctionEast_1" arrivalPos="492.80" arrivalSpeed="27.30" duration="68.00" routeLength="994.90" waitingTime="1.00" waitingCount="1" stopTime="0.00" timeLoss="31.82" rerouteNo="0" devices="tripinfo_westEastTop.4 ssm_westEastTop.4" vType="carCustom" speedFactor="1.01" vaporized=""/>
    <tripinfo id="southNorth.4" depart="31.00" departLane="southJunction_1" departPos="5.10" departSpeed="15.04" departDelay="0.00" arrival="95.00" arrivalLane="junctionNorth_0" arrivalPos="492.80" arrivalSpeed="27.08" duration="64.00" routeLength="995.01" waitingTime="0.00" waitingCount="0" stopTime="0.00" timeLoss="27.32" rerouteNo="0" devices="tripinfo_southNorth.4 ssm_southNorth.4" vType="carCustom" speedFactor="0.95" vaporized=""/>
    <tripinfo id="westEastTop.5" depart="40.00" departLane="westJunction_1" departPos="5.10" departSpeed="14.83" departDelay="0.30" arrival="100.00" arrivalLane="junctionEast_1" arrivalPos="492.80" arrivalSpeed="27.20" duration="60.00" routeLength="994.90" waitingTime="0.00" waitingCount="0" stopTime="0.00" timeLoss="23.53" rerouteNo="0" devices="tripinfo_westEastTop.5 ssm_westEastTop.5" vType="carCustom" speedFactor="1.01" vaporized=""/>
    <tripinfo id="southNorth.5" depart="33.00" departLane="southJunction_1" departPos="5.10" departSpeed="15.08" departDelay="0.60" arrival="105.00" arrivalLane="junctionNorth_0" arrivalPos="492.80" arrivalSpeed="27.76" duration="72.00" routeLength="995.01" waitingTime="1.00" waitingCount="1" stopTime="0.00" timeLoss="35.53" rerouteNo="0" devices="tripinfo_southNorth.5 ssm_southNorth.5" vType="carCustom" speedFactor="0.95" vaporized=""/>
    <tripinfo id="westEastTop.6" depart="44.00" departLane="westJunction_1" departPos="5.10" departSpeed="20.77" departDelay="0.38" arrival="110.00" arrivalLane="junctionEast_1" arrivalPos="492.80" arrivalSpeed="26.70" duration="66.00" routeLength="994.90" waitingTime="1.00" waitingCount="1" stopTime="0.00" timeLoss="29.52" rerouteNo="0" devices="tripinfo_westEastTop.6 ssm_westEastTop.6" vType="carCustom" speedFactor="1.25" vaporized=""/>
    <tripinfo id="southEast.2" depart="57.00" departLane="southJunction_0" departPos="5.10" departSpeed="12.26" departDelay="0.47" arrival="113.00" arrivalLane="junctionEast_0" arrivalPos="492.80" arrivalSpeed="27.11" duration="56.00" routeLength="989.53" waitingTime="0.00" waitingCount="0" stopTime="0.00" timeLoss="19.50" rerouteNo="0" devices="tripinfo_southEast.2 ssm_southEast.2" vType="carCustom" speedFactor="0.92" vaporized=""/>
    <tripinfo id="southNorth.6" depart="38.00" departLane="southJunction_1" departPos="5.10" departSpeed="10.26" departDelay="0.74" arrival="115.00" arrivalLane="junctionNorth_0" arrivalPos="492.80" arrivalSpeed="27.15" duration="77.00" routeLength="995.01" waitingTime="2.00" waitingCount="1" stopTime="0.00" timeLoss="40.55" rerouteNo="0" devices="tripinfo_southNorth.6 ssm_southNorth.6" vType="carCustom" speedFactor="1.06" vaporized=""/>
    <tripinfo id="westEastBottom0.2" depart="50.00" departLane="westJunction_0" departPos="5.10" departSpeed="16.03" departDelay="0.85" arrival="120.00" arrivalLane="junctionEast_1" arrivalPos="492.80" arrivalSpeed="27.11" duration="70.00" routeLength="994.90" waitingTime="2.00" waitingCount="1" stopTime="0.00" timeLoss="33.47" rerouteNo="0" devices="tripinfo_westEastBottom0.2 ssm_westEastBottom0.2" vType="carCustom" speedFactor="0.97" vaporized=""/>
    <tripinfo id="southNorth.7" depart="49.00" departLane="southJunction_1" departPos="5.10" departSpeed="11.04" departDelay="0.31" arrival="124.00" arrivalLane="junctionNorth_0" arrivalPos="492.80" arrivalSpeed="27.00" duration="75.00" routeLength="995.01" waitingTime="3.00" waitingCount="1" stopTime="0.00" timeLoss="39.16" rerouteNo="0" devices="tripinfo_southNorth.7 ssm_southNorth.7" vType="carCustom" speedFactor="0.99" vaporized=""/>
    <tripinfo id="southEast.3" depart="73.00" departLane="southJunction_0" departPos="5.10" departSpeed="16.05" departDelay="0.31" arrival="128.00" arrivalLane="junctionEast_0" arrivalPos="492.80" arrivalSpeed="27.31" duration="55.00" routeLength="989.53" waitingTime="0.00" waitingCount="0" stopTime="0.00" timeLoss="17.85" rerouteNo="0" devices="tripinfo_southEast.3 ssm_southEast.3" vType="carCustom" speedFactor="1.08" vaporized=""/>
    <tripinfo id="westEastTop.7" depart="47.00" departLane="westJunction_1" departPos="5.10" departSpeed="15.52" departDelay="0.51" arrival="130.00" arrivalLane="junctionEast_1" arrivalPos="492.80" arrivalSpeed="26.85" duration="83.00" routeLength="994.90" waitingTime="3.00" waitingCount="1" stopTime="0.00" timeLoss="46.76" rerouteNo="0" devices="tripinfo_westEastTop.7 ssm_westEastTop.7" vType="carCustom" speedFactor="0.88" vaporized=""/>
    <tripinfo id="westEastBottom0.3" depart="75.00" departLane="westJunction_0" departPos="5.10" departSpeed="27.78" departDelay="0.55" arrival="135.00" arrivalLane="junctionEast_0" arrivalPos="492.80" arrivalSpeed="27.00" duration="60.00" routeLength="994.90" waitingTime="5.00" waitingCount="1" stopTime="0.00" timeLoss="23.60" rerouteNo="0" devices="tripinfo_westEastBottom0.3 ssm_westEastBottom0.3" vType="carCustom" speedFactor="1.11" vaporized=""/>
    <tripinfo id="southNorth.8" depart="71.00" departLane="southJunction_1" departPos="5.10" departSpeed="12.48" departDelay="0.17" arrival="136.00" arrivalLane="junctionNorth_0" arrivalPos="492.80" arrivalSpeed="26.81" duration="65.00" routeLength="995.01" waitingTime="4.00" waitingCount="1" stopTime="0.00" timeLoss="28.41" rerouteNo="0" devices="tripinfo_southNorth.8 ssm_southNorth.8" vType="carCustom" speedFactor="0.99" vaporized=""/>
    <tripinfo id="westEastTop.8" depart="58.00" departLane="westJunction_1" departPos="5.10" departSpeed="13.06" departDelay="0.16" arrival="137.00" arrivalLane="junctionEast_1" arrivalPos="492.80" arrivalSpeed="27.18" duration="79.00" routeLength="994.90" waitingTime="0.00" waitingCount="0" stopTime="0.00" timeLoss="43.01" rerouteNo="0" devices="tripinfo_westEastTop.8 ssm_westEastTop.8" vType="carCustom" speedFactor="1.12" vaporized=""/>
    <tripinfo id="westEastBottom0.4" depart="77.00" departLane="westJunction_0" departPos="5.10" departSpeed="26.56" departDelay="2.44" arrival="143.00" arrivalLane="junctionEast_0" arrivalPos="492.80" arrivalSpeed="26.89" duration="66.00" routeLength="994.90" waitingTime="1.00" waitingCount="1" stopTime="0.00" timeLoss="29.63" rerouteNo="0" devices="tripinfo_westEastBottom0.4 ssm_westEastBottom0.4" vType="carCustom" speedFactor="0.98" vaporized=""/>
    <tripinfo id="westEastTop.9" depart="65.00" departLane="westJunction_1" departPos="5.10" departSpeed="12.96" departDelay="0.14" arrival="144.00" arrivalLane="junctionEast_1" arrivalPos="492.80" arrivalSpeed="26.74" duration="79.00" routeLength="994.90" waitingTime="1.00" waitingCount="1" stopTime="0.00" timeLoss="43.06" rerouteNo="0" devices="tripinfo_westEastTop.9 ssm_westEastTop.9" vType="carCustom" speedFactor="0.86" vaporized=""/>
    <tripinfo id="southNorth.9" depart="80.00" departLane="southJunction_1" departPos="5.10" departSpeed="20.60" departDelay="0.86" arrival="145.00" arrivalLane="junctionNorth_0" arrivalPos="492.80" arrivalSpeed="27.37" duration="65.00" routeLength="995.01" waitingTime="2.00" waitingCount="1" stopTime="0.00" timeLoss="28.95" rerouteNo="0" devices="tripinfo_southNorth.9 ssm_southNorth.9" vType="carCustom" speedFactor="0.96" vaporized=""/>
    <tripinfo id="southEast.4" depart="95.00" departLane="southJunction_0" departPos="5.10" departSpeed="14.35" departDelay="0.02" arrival="150.00" arrivalLane="junctionEast_0" arrivalPos="492.80" arrivalSpeed="27.56" duration="55.00" routeLength="989.53" waitingTime="0.00" waitingCount="0" stopTime="0.00" timeLoss="18.33" rerouteNo="0" devices="tripinfo_southEast.4 ssm_southEast.4" vType="carCustom" speedFactor="1.09" vaporized=""/>
    <tripinfo id="westEastTop.10" depart="68.00" departLane="westJunction_1" departPos="5.10" departSpeed="12.24" departDelay="0.12" arrival="152.00" arrivalLane="junctionEast_1" arrivalPos="492.80" arrivalSpeed="27.52" duration="84.00" routeLength="994.90" waitingTime="3.00" waitingCount="1" stopTime="0.00" timeLoss="48.02" rerouteNo="0" devices="tripinfo_westEastTop.10 ssm_westEastTop.10" vType="carCustom" speedFactor="1.09" vaporized=""/>
    <tripinfo id="southNorth.10" depart="98.00" departLane="southJunction_1" departPos="5.10" departSpeed="15.38" departDelay="0.66" arrival="155.00" arrivalLane="junctionNorth_0" arrivalPos="492.80" arrivalSpeed="26.92" duration="57.00" routeLength="995.01" waitingTime="0.00" waitingCount="0" stopTime="0.00" timeLoss="20.67" rerouteNo="0" devices="tripinfo_southNorth.10 ssm_southNorth.10" vType="carCustom" speedFactor="1.08" vaporized=""/>
    <tripinfo id="westEastTop.11" depart="70.00" departLane="westJunction_1" departPos="5.10" departSpeed="9.30" departDelay="0.16" arrival="161.00" arrivalLane="junctionEast_1" arrivalPos="492.80" arrivalSpeed="26.70" duration="91.00" routeLength="994.90" waitingTime="4.00" waitingCount="1" stopTime="0.00" timeLoss="54.94" rerouteNo="0" devices="tripinfo_westEastTop.11 ssm_westEastTop.11" vType="carCustom" speedFactor="1.12" vaporized=""/>
    <tripinfo id="westEastBottom0.6" depart="109.00" departLane="westJunction_0" departPos="5.10" departSpeed="7.69" departDelay="0.58" arrival="161.00" arrivalLane="junctionEast_0" arrivalPos="492.80" arrivalSpeed="26.54" duration="52.00" routeLength="994.90" waitingTime="0.00" waitingCount="0" stopTime="0.00" timeLoss="16.10" rerouteNo="0" devices="tripinfo_westEastBottom0.6 ssm_westEastBottom0.6" vType="carCustom" speedFactor="0.99" vaporized=""/>
    <tripinfo id="southNorth.11" depart="100.00" departLane="southJunction_1" departPos="5.10" departSpeed="18.64" departDelay="1.59" arrival="165.00" arrivalLane="junctionNorth_0" arrivalPos="492.80" arrivalSpeed="26.65" duration="65.00" routeLength="995.01" waitingTime="1.00" waitingCount="1" stopTime="0.00" timeLoss="29.08" rerouteNo="0" devices="tripinfo_southNorth.11 ssm_southNorth.11" vType="carCustom" speedFactor="0.77" vaporized=""/>
    <tripinfo id="westEastBottom0.5" depart="89.00" departLane="westJunction_0" departPos="5.10" departSpeed="14.43" departDelay="0.97" arrival="168.00" arrivalLane="junctionEast_1" arrivalPos="492.80" arrivalSpeed="27.31" duration="79.00" routeLength="994.90" waitingTime="0.00" waitingCount="0" stopTime="0.00" timeLoss="42.96" rerouteNo="0" devices="tripinfo_westEastBottom0.5 ssm_westEastBottom0.5" vType="carCustom" speedFactor="1.00" vaporized=""/>
    <tripinfo id="westEastBottom0.7" depart="115.00" departLane="westJunction_0" departPos="5.10" departSpeed="17.52" departDelay="0.82" arrival="175.00" arrivalLane="junctionEast_1" arrivalPos="492.80" arrivalSpeed="26.69" duration="60.00" routeLength="994.90" waitingTime="0.00" waitingCount="0" stopTime="0.00" timeLoss="23.52" rerouteNo="0" devices="tripinfo_westEastBottom0.7 ssm_westEastBottom0.7" vType="carCustom" speedFactor="0.94" vaporized=""/>
    <tripinfo id="southNorth.12" depart="135.00" departLane="southJunction_1" departPos="5.10" departSpeed="9.65" departDelay="0.67" arrival="179.00" arrivalLane="junctionNorth_0" arrivalPos="492.80" arrivalSpeed="26.49" duration="44.00" routeLength="995.01" waitingTime="0.00" waitingCount="0" stopTime="0.00" timeLoss="7.88" rerouteNo="0" devices="tripinfo_southNorth.12 ssm_southNorth.12" vType="carCustom" speedFactor="1.04" vaporized=""/>
    <tripinfo id="westEastTop.12" depart="92.00" departLane="westJunction_1" departPos="5.10" departSpeed="16.66" departDelay="0.36" arrival="181.00" arrivalLane="junctionEast_1" arrivalPos="492.80" arrivalSpeed="26.64" duration="89.00" routeLength="994.90" waitingTime="1.00" waitingCount="1" stopTime="0.00" timeLoss="52.81" rerouteNo="0" devices="tripinfo_westEastTop.12 ssm_westEastTop.12" vType="carCustom" speedFactor="0.91" vaporized=""/>
    <tripinfo id="westEastBottom0.8" depart="121.00" departLane="westJunction_0" departPos="5.10" departSpeed="13.69" departDelay="0.98" arrival="182.00" arrivalLane="junctionEast_0" arrivalPos="492.80" arrivalSpeed="27.52" duration="61.00" routeLength="994.90" waitingTime="0.00" waitingCount="0" stopTime="0.00" timeLoss="24.70" rerouteNo="0" devices="tripinfo_westEastBottom0.8 ssm_westEastBottom0.8" vType="carCustom" speedFactor="1.03" vaporized=""/>
    <tripinfo id="westEastTop.13" depart="108.00" departLane="westJunction_1" departPos="5.10" departSpeed="11.86" departDelay="0.68" arrival="187.00" arrivalLane="junctionEast_1" arrivalPos="492.80" arrivalSpeed="27.29" duration="79.00" routeLength="994.90" waitingTime="0.00" waitingCount="0" stopTime="0.00" timeLoss="42.85" rerouteNo="0" devices="tripinfo_westEastTop.13 ssm_westEastTop.13" vType="carCustom" speedFactor="1.03" vaporized=""/>
    <tripinfo id="westEastBottom0.9" depart="127.00" departLane="westJunction_0" departPos="5.10" departSpeed="13.05" departDelay="0.91" arrival="193.00" arrivalLane="junctionEast_1" arrivalPos="492.80" arrivalSpeed="26.97" duration="66.00" routeLength="994.90" waitingTime="0.00" waitingCount="0" stopTime="0.00" timeLoss="29.67" rerouteNo="0" devices="tripinfo_westEastBottom0.9 ssm_westEastBottom0.9" vType="carCustom" speedFactor="1.18" vaporized=""/>
    <tripinfo id="westEastTop.14" depart="111.00" departLane="westJunction_1" departPos="5.10" departSpeed="16.73" departDelay="0.59" arrival="198.00" arrivalLane="junctionEast_1" arrivalPos="492.80" arrivalSpeed="27.72" duration="87.00" routeLength="994.90" waitingTime="0.00" waitingCount="0" stopTime="0.00" timeLoss="50.99" rerouteNo="0" devices="tripinfo_westEastTop.14 ssm_westEastTop.14" vType="carCustom" speedFactor="0.81" vaporized=""/>
    <tripinfo id="westEastBottom0.10" depart="133.00" departLane="westJunction_0" departPos="5.10" departSpeed="12.64" departDelay="0.54" arrival="199.00" arrivalLane="junctionEast_0" arrivalPos="492.80" arrivalSpeed="26.67" duration="66.00" routeLength="994.90" waitingTime="0.00" waitingCount="0" stopTime="0.00" timeLoss="29.84" rerouteNo="0" devices="tripinfo_westEastBottom0.10 ssm_westEastBottom0.10" vType="carCustom" speedFactor="0.89" vaporized=""/>
    <tripinfo id="westEastTop.15" depart="117.00" departLane="westJunction_1" departPos="5.10" departSpeed="11.47" departDelay="0.75" arrival="204.00" arrivalLane="junctionEast_1" arrivalPos="492.80" arrivalSpeed="27.28" duration="87.00" routeLength="994.90" waitingTime="0.00" waitingCount="0" stopTime="0.00" timeLoss="50.32" rerouteNo="0" devices="tripinfo_westEastTop.15 ssm_westEastTop.15" vType="carCustom" speedFactor="1.04" vaporized=""/>
    <tripinfo id="westEastBottom0.11" depart="143.00" departLane="westJunction_0" departPos="5.10" departSpeed="12.51" departDelay="0.50" arrival="206.00" arrivalLane="junctionEast_0" arrivalPos="492.80" arrivalSpeed="27.72" duration="63.00" routeLength="994.90" waitingTime="0.00" waitingCount="0" stopTime="0.00" timeLoss="26.53" rerouteNo="0" devices="tripinfo_westEastBottom0.11 ssm_westEastBottom0.11" vType="carCustom" speedFactor="1.07" vaporized=""/>
    <tripinfo id="westEastTop.17" depart="137.00" departLane="westJunction_1" departPos="5.10" departSpeed="15.01" departDelay="0.54" arrival="210.00" arrivalLane="junctionEast_1" arrivalPos="492.80" arrivalSpeed="27.70" duration="73.00" routeLength="994.90" waitingTime="0.00" waitingCount="0" stopTime="0.00" timeLoss="37.14" rerouteNo="0" devices="tripinfo_westEastTop.17 ssm_westEastTop.17" vType="carCustom" speedFactor="0.94" vaporized=""/>
    <tripinfo id="westEastTop.16" depart="129.00" departLane="westJunction_1" departPos="5.10" departSpeed="11.80" departDelay="0.52" arrival="211.00" arrivalLane="junctionEast_0" arrivalPos="492.80" arrivalSpeed="27.00" duration="82.00" routeLength="994.90" waitingTime="0.00" waitingCount="0" stopTime="0.00" timeLoss="45.68" rerouteNo="0" devices="tripinfo_westEastTop.16 ssm_westEastTop.16" vType="carCustom" speedFactor="0.87" vaporized=""/>
    <tripinfo id="southNorth.13" depart="168.00" departLane="southJunction_1" departPos="5.10" departSpeed="27.78" departDelay="0.63" arrival="216.00" arrivalLane="junctionNorth_0" arrivalPos="492.80" arrivalSpeed="26.94" duration="48.00" routeLength="995.01" waitingTime="0.00" waitingCount="0" stopTime="0.00" timeLoss="11.80" rerouteNo="0" devices="tripinfo_southNorth.13 ssm_southNorth.13" vType="carCustom" speedFactor="0.85" vaporized=""/>
    <tripinfo id="westEastTop.18" depart="139.00" departLane="westJunction_1" departPos="5.10" departSpeed="14.33" departDelay="1.84" arrival="217.00" arrivalLane="junctionEast_1" arrivalPos="492.80" arrivalSpeed="26.66" duration="78.00" routeLength="994.90" waitingTime="0.00" waitingCount="0" stopTime="0.00" timeLoss="41.57" rerouteNo="0" devices="tripinfo_westEastTop.18 ssm_westEastTop.18" vType="carCustom" speedFactor="1.10" vaporized=""/>
    <tripinfo id="southEast.5" depart="167.00" departLane="southJunction_0" departPos="5.10" departSpeed="27.78" departDelay="0.25" arrival="217.00" arrivalLane="junctionEast_0" arrivalPos="492.80" arrivalSpeed="26.89" duration="50.00" routeLength="989.53" waitingTime="0.00" waitingCount="0" stopTime="0.00" timeLoss="12.67" rerouteNo="0" devices="tripinfo_southEast.5 ssm_southEast.5" vType="carCustom" speedFactor="1.14" vaporized=""/>
    <tripinfo id="westEastTop.19" depart="152.00" departLane="westJunction_1" departPos="5.10" departSpeed="12.39" departDelay="0.63" arrival="223.00" arrivalLane="junctionEast_1" arrivalPos="492.80" arrivalSpeed="27.52" duration="71.00" routeLength="994.90" waitingTime="0.00" waitingCount="0" stopTime="0.00" timeLoss="34.91" rerouteNo="0" devices="tripinfo_westEastTop.19 ssm_westEastTop.19" vType="carCustom" speedFactor="1.04" vaporized=""/>
    <tripinfo id="westEastTop.20" depart="156.00" departLane="westJunction_1" departPos="5.10" departSpeed="15.41" departDelay="0.98" arrival="230.00" arrivalLane="junctionEast_1" arrivalPos="492.80" arrivalSpeed="27.24" duration="74.00" routeLength="994.90" waitingTime="0.00" waitingCount="0" stopTime="0.00" timeLoss="37.31" rerouteNo="0" devices="tripinfo_westEastTop.20 ssm_westEastTop.20" vType="carCustom" speedFactor="0.97" vaporized=""/>
    <tripinfo id="southEast.6" depart="178.00" departLane="southJunction_0" departPos="5.10" departSpeed="26.89" departDelay="0.44" arrival="234.00" arrivalLane="junctionEast_0" arrivalPos="492.80" arrivalSpeed="27.18" duration="56.00" routeLength="989.53" waitingTime="0.00" waitingCount="0" stopTime="0.00" timeLoss="18.36" rerouteNo="0" devices="tripinfo_southEast.6 ssm_southEast.6" vType="carCustom" speedFactor="1.02" vaporized=""/>
    <tripinfo id="westEastTop.21" depart="158.00" departLane="westJunction_1" departPos="5.10" departSpeed="12.21" departDelay="2.04" arrival="236.00" arrivalLane="junctionEast_1" arrivalPos="492.80" arrivalSpeed="27.27" duration="78.00" routeLength="994.90" waitingTime="0.00" waitingCount="0" stopTime="0.00" timeLoss="41.86" rerouteNo="0" devices="tripinfo_westEastTop.21 ssm_westEastTop.21" vType="carCustom" speedFactor="1.03" vaporized=""/>
    <tripinfo id="westEastBottom0.12" depart="186.00" departLane="westJunction_0" departPos="5.10" departSpeed="27.78" departDelay="0.31" arrival="241.00" arrivalLane="junctionEast_0" arrivalPos="492.80" arrivalSpeed="27.03" duration="55.00" routeLength="994.90" waitingTime="0.00" waitingCount="0" stopTime="0.00" timeLoss="18.50" rerouteNo="0" devices="tripinfo_westEastBottom0.12 ssm_westEastBottom0.12" vType="carCustom" speedFactor="1.15" vaporized=""/>
    <tripinfo id="westEastTop.22" depart="160.00" departLane="westJunction_1" departPos="5.10" departSpeed="8.33" departDelay="3.98" arrival="243.00" arrivalLane="junctionEast_1" arrivalPos="492.80" arrivalSpeed="27.74" duration="83.00" routeLength="994.90" waitingTime="0.00" waitingCount="0" stopTime="0.00" timeLoss="46.28" rerouteNo="0" devices="tripinfo_westEastTop.22 ssm_westEastTop.22" vType="carCustom" speedFactor="0.99" vaporized=""/>
    <tripinfo id="southEast.7" depart="180.00" departLane="southJunction_0" departPos="5.10" departSpeed="25.45" departDelay="0.57" arrival="248.00" arrivalLane="junctionEast_0" arrivalPos="492.80" arrivalSpeed="27.70" duration="68.00" routeLength="989.53" waitingTime="0.00" waitingCount="0" stopTime="0.00" timeLoss="30.65" rerouteNo="0" devices="tripinfo_southEast.7 ssm_southEast.7" vType="carCustom" speedFactor="0.89" vaporized=""/>
    <tripinfo id="westEastTop.23" depart="164.00" departLane="westJunction_1" departPos="5.10" departSpeed="6.00" departDelay="0.01" arrival="249.00" arrivalLane="junctionEast_1" arrivalPos="492.80" arrivalSpeed="27.17" duration="85.00" routeLength="994.90" waitingTime="0.00" waitingCount="0" stopTime="0.00" timeLoss="48.77" rerouteNo="0" devices="tripinfo_westEastTop.23 ssm_westEastTop.23" vType="carCustom" speedFactor="0.93" vaporized=""/>
    <tripinfo id="southNorth.14" depart="181.00" departLane="southJunction_1" departPos="5.10" departSpeed="24.33" departDelay="0.83" arrival="251.00" arrivalLane="junctionNorth_0" arrivalPos="492.80" arrivalSpeed="26.70" duration="70.00" routeLength="995.01" waitingTime="18.00" waitingCount="1" stopTime="0.00" timeLoss="34.06" rerouteNo="0" devices="tripinfo_southNorth.14 ssm_southNorth.14" vType="carCustom" speedFactor="1.05" vaporized=""/>
    <tripinfo id="westEastBottom0.13" depart="189.00" departLane="westJunction_0" departPos="5.10" departSpeed="25.49" departDelay="0.06" arrival="255.00" arrivalLane="junctionEast_1" arrivalPos="492.80" arrivalSpeed="27.50" duration="66.00" routeLength="994.90" waitingTime="0.00" waitingCount="0" stopTime="0.00" timeLoss="30.14" rerouteNo="0" devices="tripinfo_westEastBottom0.13 ssm_westEastBottom0.13" vType="carCustom" speedFactor="1.03" vaporized=""/>
    <tripinfo id="westEastTop.24" depart="168.00" departLane="westJunction_1" departPos="5.10" departSpeed="5.50" departDelay="0.29" arrival="261.00" arrivalLane="junctionEast_1" arrivalPos="492.80" arrivalSpeed="26.67" duration="93.00" routeLength="994.90" waitingTime="0.00" waitingCount="0" stopTime="0.00" timeLoss="57.16" rerouteNo="0" devices="tripinfo_westEastTop.24 ssm_westEastTop.24" vType="carCustom" speedFactor="0.94" vaporized=""/>
    <tripinfo id="westEastBottom0.14" depart="191.00" departLane="westJunction_0" departPos="5.10" departSpeed="21.50" departDelay="1.80" arrival="262.00" arrivalLane="junctionEast_0" arrivalPos="492.80" arrivalSpeed="27.71" duration="71.00" routeLength="994.90" waitingTime="4.00" waitingCount="1" stopTime="0.00" timeLoss="34.37" rerouteNo="0" devices="tripinfo_westEastBottom0.14 ssm_westEastBottom0.14" vType="carCustom" speedFactor="0.84" vaporized=""/>