<?xml version="1.0" encoding="UTF-8"?>

<!-- generated on 2025-04-29 07:37:14 by Eclipse SUMO sumo Version 1.20.0
<configuration xmlns:xsi="http://www.w3.org/2001/XMLSchema-instance" xsi:noNamespaceSchemaLocation="http://sumo.dlr.de/xsd/sumoConfiguration.xsd">

    <input>
        <net-file value="nets/2lane_unprotected_right/2lane_unprotected_right.net.xml"/>
        <route-files value="nets/2lane_unprotected_right/2lane_unprotected_right.rou.xml"/>
    </input>

    <output>
        <tripinfo-output value="traces/transs50f0.5_s50_f1_random/0117_tripinfo.xml"/>
        <collision-output value="traces/transs50f0.5_s50_f1_random/0117_collisions.xml"/>
        <statistic-output value="traces/transs50f0.5_s50_f1_random/0117_statistics.xml"/>
    </output>

    <processing>
        <collision.action value="teleport"/>
        <collision.check-junctions value="true"/>
        <time-to-teleport value="-1"/>
        <waiting-time-memory value="1000"/>
        <max-depart-delay value="-1"/>
        <default.speeddev value="0.1"/>
    </processing>

    <report>
        <no-warnings value="true"/>
    </report>

    <ssm_device>
        <device.ssm.probability value="1.0"/>
        <device.ssm.measures value="BR"/>
        <device.ssm.file value="/Users/finn/Code/CausalKnowledgeTransfer-4-SafeRL/traces/transs50f0.5_s50_f1_random/0117_ssm.xml"/>
    </ssm_device>

    <traci_server>
        <remote-port value="63851"/>
    </traci_server>

    <random_number>
        <random value="true"/>
    </random_number>

</configuration>
-->

<tripinfos xmlns:xsi="http://www.w3.org/2001/XMLSchema-instance" xsi:noNamespaceSchemaLocation="http://sumo.dlr.de/xsd/tripinfo_file.xsd">
    <tripinfo id="westEastTop.0" depart="7.00" departLane="westJunction_1" departPos="5.10" departSpeed="22.22" departDelay="0.76" arrival="54.00" arrivalLane="junctionEast_1" arrivalPos="492.80" arrivalSpeed="21.33" duration="47.00" routeLength="994.90" waitingTime="0.00" waitingCount="0" stopTime="0.00" timeLoss="1.38" rerouteNo="0" devices="tripinfo_westEastTop.0 ssm_westEastTop.0" vType="carCustom" speedFactor="0.86" vaporized=""/>
    <tripinfo id="southEast.0" depart="4.00" departLane="southJunction_0" departPos="5.10" departSpeed="22.22" departDelay="0.51" arrival="59.00" arrivalLane="junctionEast_0" arrivalPos="492.80" arrivalSpeed="21.86" duration="55.00" routeLength="989.53" waitingTime="0.00" waitingCount="0" stopTime="0.00" timeLoss="9.72" rerouteNo="0" devices="tripinfo_southEast.0 ssm_southEast.0" vType="carCustom" speedFactor="1.19" vaporized=""/>
    <tripinfo id="southNorth.0" depart="7.00" departLane="southJunction_1" departPos="5.10" departSpeed="22.22" departDelay="0.54" arrival="63.00" arrivalLane="junctionNorth_0" arrivalPos="492.80" arrivalSpeed="21.20" duration="56.00" routeLength="995.01" waitingTime="0.00" waitingCount="0" stopTime="0.00" timeLoss="10.85" rerouteNo="0" devices="tripinfo_southNorth.0 ssm_southNorth.0" vType="carCustom" speedFactor="0.98" vaporized=""/>
    <tripinfo id="westEastTop.1" depart="10.00" departLane="westJunction_1" departPos="5.10" departSpeed="21.85" departDelay="0.99" arrival="67.00" arrivalLane="junctionEast_1" arrivalPos="492.80" arrivalSpeed="21.95" duration="57.00" routeLength="994.90" waitingTime="0.00" waitingCount="0" stopTime="0.00" timeLoss="11.58" rerouteNo="0" devices="tripinfo_westEastTop.1 ssm_westEastTop.1" vType="carCustom" speedFactor="1.00" vaporized=""/>
    <tripinfo id="westEastTop.2" depart="12.00" departLane="westJunction_1" departPos="5.10" departSpeed="18.44" departDelay="2.98" arrival="77.00" arrivalLane="junctionEast_1" arrivalPos="492.80" arrivalSpeed="21.49" duration="65.00" routeLength="994.90" waitingTime="0.00" waitingCount="0" stopTime="0.00" timeLoss="19.33" rerouteNo="0" devices="tripinfo_westEastTop.2 ssm_westEastTop.2" vType="carCustom" speedFactor="1.09" vaporized=""/>
    <tripinfo id="southNorth.1" depart="23.00" departLane="southJunction_1" departPos="5.10" departSpeed="20.96" departDelay="0.54" arrival="85.00" arrivalLane="junctionNorth_0" arrivalPos="492.80" arrivalSpeed="21.34" duration="62.00" routeLength="995.01" waitingTime="3.00" waitingCount="1" stopTime="0.00" timeLoss="16.80" rerouteNo="0" devices="tripinfo_southNorth.1 ssm_southNorth.1" vType="carCustom" speedFactor="0.88" vaporized=""/>
    <tripinfo id="westEastBottom0.0" depart="26.00" departLane="westJunction_0" departPos="5.10" departSpeed="22.22" departDelay="0.20" arrival="90.00" arrivalLane="junctionEast_1" arrivalPos="492.80" arrivalSpeed="21.60" duration="64.00" routeLength="994.90" waitingTime="4.00" waitingCount="1" stopTime="0.00" timeLoss="18.13" rerouteNo="0" devices="tripinfo_westEastBottom0.0 ssm_westEastBottom0.0" vType="carCustom" speedFactor="1.12" vaporized=""/>
    <tripinfo id="southEast.1" depart="29.00" departLane="southJunction_0" departPos="5.10" departSpeed="10.78" departDelay="0.72" arrival="90.00" arrivalLane="junctionEast_0" arrivalPos="492.80" arrivalSpeed="21.18" duration="61.00" routeLength="989.53" waitingTime="0.00" waitingCount="0" stopTime="0.00" timeLoss="15.63" rerouteNo="0" devices="tripinfo_southEast.1 ssm_southEast.1" vType="carCustom" speedFactor="0.97" vaporized=""/>
    <tripinfo id="southNorth.2" depart="27.00" departLane="southJunction_1" departPos="5.10" departSpeed="21.26" departDelay="0.39" arrival="96.00" arrivalLane="junctionNorth_0" arrivalPos="492.80" arrivalSpeed="22.08" duration="69.00" routeLength="995.01" waitingTime="0.00" waitingCount="0" stopTime="0.00" timeLoss="23.41" rerouteNo="0" devices="tripinfo_southNorth.2 ssm_southNorth.2" vType="carCustom" speedFactor="0.96" vaporized=""/>
    <tripinfo id="westEastTop.3" depart="14.00" departLane="westJunction_1" departPos="5.10" departSpeed="15.02" departDelay="1.86" arrival="101.00" arrivalLane="junctionEast_0" arrivalPos="492.80" arrivalSpeed="22.07" duration="87.00" routeLength="994.90" waitingTime="2.00" waitingCount="1" stopTime="0.00" timeLoss="41.50" rerouteNo="0" devices="tripinfo_westEastTop.3 ssm_westEastTop.3" vType="carCustom" speedFactor="1.01" vaporized=""/>
    <tripinfo id="southNorth.3" depart="29.00" departLane="southJunction_1" departPos="5.10" departSpeed="17.85" departDelay="0.43" arrival="106.00" arrivalLane="junctionNorth_0" arrivalPos="492.80" arrivalSpeed="21.01" duration="77.00" routeLength="995.01" waitingTime="1.00" waitingCount="1" stopTime="0.00" timeLoss="31.78" rerouteNo="0" devices="tripinfo_southNorth.3 ssm_southNorth.3" vType="carCustom" speedFactor="0.97" vaporized=""/>
    <tripinfo id="southEast.2" depart="46.00" departLane="southJunction_0" departPos="5.10" departSpeed="17.83" departDelay="0.19" arrival="110.00" arrivalLane="junctionEast_0" arrivalPos="492.80" arrivalSpeed="21.54" duration="64.00" routeLength="989.53" waitingTime="0.00" waitingCount="0" stopTime="0.00" timeLoss="18.06" rerouteNo="0" devices="tripinfo_southEast.2 ssm_southEast.2" vType="carCustom" speedFactor="0.90" vaporized=""/>
    <tripinfo id="westEastTop.4" depart="20.00" departLane="westJunction_1" departPos="5.10" departSpeed="6.57" departDelay="0.49" arrival="111.00" arrivalLane="junctionEast_1" arrivalPos="492.80" arrivalSpeed="21.03" duration="91.00" routeLength="994.90" waitingTime="3.00" waitingCount="1" stopTime="0.00" timeLoss="45.40" rerouteNo="0" devices="tripinfo_westEastTop.4 ssm_westEastTop.4" vType="carCustom" speedFactor="1.01" vaporized=""/>
    <tripinfo id="southNorth.4" depart="32.00" departLane="southJunction_1" departPos="5.10" departSpeed="12.74" departDelay="0.36" arrival="117.00" arrivalLane="junctionNorth_0" arrivalPos="492.80" arrivalSpeed="22.01" duration="85.00" routeLength="995.01" waitingTime="2.00" waitingCount="1" stopTime="0.00" timeLoss="39.31" rerouteNo="0" devices="tripinfo_southNorth.4 ssm_southNorth.4" vType="carCustom" speedFactor="1.03" vaporized=""/>
    <tripinfo id="southEast.3" depart="48.00" departLane="southJunction_0" departPos="5.10" departSpeed="19.39" departDelay="1.32" arrival="119.00" arrivalLane="junctionEast_0" arrivalPos="492.80" arrivalSpeed="21.16" duration="71.00" routeLength="989.53" waitingTime="0.00" waitingCount="0" stopTime="0.00" timeLoss="25.41" rerouteNo="0" devices="tripinfo_southEast.3 ssm_southEast.3" vType="carCustom" speedFactor="0.99" vaporized=""/>
    <tripinfo id="westEastTop.5" depart="22.00" departLane="westJunction_1" departPos="5.10" departSpeed="8.18" departDelay="2.25" arrival="121.00" arrivalLane="junctionEast_1" arrivalPos="492.80" arrivalSpeed="21.27" duration="99.00" routeLength="994.90" waitingTime="3.00" waitingCount="1" stopTime="0.00" timeLoss="54.05" rerouteNo="0" devices="tripinfo_westEastTop.5 ssm_westEastTop.5" vType="carCustom" speedFactor="1.05" vaporized=""/>
    <tripinfo id="southNorth.5" depart="45.00" departLane="southJunction_1" departPos="5.10" departSpeed="10.65" departDelay="0.44" arrival="127.00" arrivalLane="junctionNorth_0" arrivalPos="492.80" arrivalSpeed="21.22" duration="82.00" routeLength="995.01" waitingTime="2.00" waitingCount="1" stopTime="0.00" timeLoss="36.72" rerouteNo="0" devices="tripinfo_southNorth.5 ssm_southNorth.5" vType="carCustom" speedFactor="0.85" vaporized=""/>
    <tripinfo id="westEastBottom0.1" depart="65.00" departLane="westJunction_0" departPos="5.10" departSpeed="22.22" departDelay="0.54" arrival="127.00" arrivalLane="junctionEast_0" arrivalPos="492.80" arrivalSpeed="21.87" duration="62.00" routeLength="994.90" waitingTime="0.00" waitingCount="0" stopTime="0.00" timeLoss="16.98" rerouteNo="0" devices="tripinfo_westEastBottom0.1 ssm_westEastBottom0.1" vType="carCustom" speedFactor="1.04" vaporized=""/>
    <tripinfo id="westEastTop.6" depart="25.00" departLane="westJunction_1" departPos="5.10" departSpeed="4.10" departDelay="4.65" arrival="132.00" arrivalLane="junctionEast_1" arrivalPos="492.80" arrivalSpeed="21.21" duration="107.00" routeLength="994.90" waitingTime="4.00" waitingCount="1" stopTime="0.00" timeLoss="61.38" rerouteNo="0" devices="tripinfo_westEastTop.6 ssm_westEastTop.6" vType="carCustom" speedFactor="0.92" vaporized=""/>
    <tripinfo id="westEastBottom0.2" depart="76.00" departLane="westJunction_0" departPos="5.10" departSpeed="17.77" departDelay="0.58" arrival="136.00" arrivalLane="junctionEast_0" arrivalPos="492.80" arrivalSpeed="21.34" duration="60.00" routeLength="994.90" waitingTime="0.00" waitingCount="0" stopTime="0.00" timeLoss="14.31" rerouteNo="0" devices="tripinfo_westEastBottom0.2 ssm_westEastBottom0.2" vType="carCustom" speedFactor="1.00" vaporized=""/>
    <tripinfo id="southNorth.6" depart="49.00" departLane="southJunction_1" departPos="5.10" departSpeed="12.20" departDelay="0.41" arrival="137.00" arrivalLane="junctionNorth_0" arrivalPos="492.80" arrivalSpeed="21.70" duration="88.00" routeLength="995.01" waitingTime="3.00" waitingCount="1" stopTime="0.00" timeLoss="42.57" rerouteNo="0" devices="tripinfo_southNorth.6 ssm_southNorth.6" vType="carCustom" speedFactor="0.98" vaporized=""/>
    <tripinfo id="southEast.6" depart="87.00" departLane="southJunction_0" departPos="5.10" departSpeed="10.34" departDelay="2.94" arrival="137.00" arrivalLane="junctionEast_0" arrivalPos="492.80" arrivalSpeed="6.71" duration="50.00" routeLength="989.53" waitingTime="0.00" waitingCount="0" stopTime="0.00" timeLoss="26.90" rerouteNo="0" devices="tripinfo_southEast.6 ssm_southEast.6" vType="carCustom" speedFactor="1.07" vaporized="teleport"/>
    <tripinfo id="westEastTop.7" depart="29.00" departLane="westJunction_1" departPos="5.10" departSpeed="4.21" departDelay="6.36" arrival="142.00" arrivalLane="junctionEast_1" arrivalPos="492.80" arrivalSpeed="21.38" duration="113.00" routeLength="994.90" waitingTime="2.00" waitingCount="1" stopTime="0.00" timeLoss="67.30" rerouteNo="0" devices="tripinfo_westEastTop.7 ssm_westEastTop.7" vType="carCustom" speedFactor="1.08" vaporized=""/>
    <tripinfo id="southEast.4" depart="83.00" departLane="southJunction_0" departPos="5.10" departSpeed="10.08" departDelay="0.69" arrival="146.00" arrivalLane="junctionEast_0" arrivalPos="492.80" arrivalSpeed="21.26" duration="63.00" routeLength="989.53" waitingTime="0.00" waitingCount="0" stopTime="0.00" timeLoss="16.94" rerouteNo="0" devices="tripinfo_southEast.4 ssm_southEast.4" vType="carCustom" speedFactor="1.05" vaporized=""/>
    <tripinfo id="westEastBottom0.5" depart="109.00" departLane="westJunction_0" departPos="5.10" departSpeed="15.47" departDelay="0.97" arrival="146.00" arrivalLane="junctionEast_0" arrivalPos="492.80" arrivalSpeed="10.81" duration="37.00" routeLength="994.90" waitingTime="0.00" waitingCount="0" stopTime="0.00" timeLoss="13.92" rerouteNo="0" devices="tripinfo_westEastBottom0.5 ssm_westEastBottom0.5" vType="carCustom" speedFactor="0.86" vaporized="teleport"/>
    <tripinfo id="southNorth.7" depart="51.00" departLane="southJunction_1" departPos="5.10" departSpeed="9.52" departDelay="0.89" arrival="147.00" arrivalLane="junctionNorth_0" arrivalPos="492.80" arrivalSpeed="21.88" duration="96.00" routeLength="995.01" waitingTime="4.00" waitingCount="1" stopTime="0.00" timeLoss="50.34" rerouteNo="0" devices="tripinfo_southNorth.7 ssm_southNorth.7" vType="carCustom" speedFactor="0.98" vaporized=""/>
    <tripinfo id="westEastTop.8" depart="33.00" departLane="westJunction_1" departPos="5.10" departSpeed="3.81" departDelay="10.19" arrival="151.00" arrivalLane="junctionEast_1" arrivalPos="492.80" arrivalSpeed="21.85" duration="118.00" routeLength="994.90" waitingTime="4.00" waitingCount="1" stopTime="0.00" timeLoss="73.18" rerouteNo="0" devices="tripinfo_westEastTop.8 ssm_westEastTop.8" vType="carCustom" speedFactor="0.94" vaporized=""/>
    <tripinfo id="westEastBottom0.3" depart="95.00" departLane="westJunction_0" departPos="5.10" departSpeed="15.63" departDelay="0.48" arrival="154.00" arrivalLane="junctionEast_0" arrivalPos="492.80" arrivalSpeed="20.98" duration="59.00" routeLength="994.90" waitingTime="0.00" waitingCount="0" stopTime="0.00" timeLoss="14.13" rerouteNo="0" devices="tripinfo_westEastBottom0.3 ssm_westEastBottom0.3" vType="carCustom" speedFactor="1.02" vaporized=""/>
    <tripinfo id="southNorth.8" depart="53.00" departLane="southJunction_1" departPos="5.10" departSpeed="6.19" departDelay="2.89" arrival="157.00" arrivalLane="junctionNorth_0" arrivalPos="492.80" arrivalSpeed="21.62" duration="104.00" routeLength="995.01" waitingTime="4.00" waitingCount="1" stopTime="0.00" timeLoss="58.27" rerouteNo="0" devices="tripinfo_southNorth.8 ssm_southNorth.8" vType="carCustom" speedFactor="0.91" vaporized=""/>
    <tripinfo id="westEastTop.9" depart="37.00" departLane="westJunction_1" departPos="5.10" departSpeed="2.67" departDelay="13.40" arrival="160.00" arrivalLane="junctionEast_1" arrivalPos="492.80" arrivalSpeed="21.68" duration="123.00" routeLength="994.90" waitingTime="1.00" waitingCount="1" stopTime="0.00" timeLoss="77.36" rerouteNo="0" devices="tripinfo_westEastTop.9 ssm_westEastTop.9" vType="carCustom" speedFactor="0.91" vaporized=""/>
    <tripinfo id="southEast.5" depart="85.00" departLane="southJunction_0" departPos="5.10" departSpeed="13.74" departDelay="1.07" arrival="162.00" arrivalLane="junctionEast_0" arrivalPos="492.80" arrivalSpeed="21.34" duration="77.00" routeLength="989.53" waitingTime="0.00" waitingCount="0" stopTime="0.00" timeLoss="31.52" rerouteNo="0" devices="tripinfo_southEast.5 ssm_southEast.5" vType="carCustom" speedFactor="1.06" vaporized=""/>
    <tripinfo id="southNorth.9" depart="56.00" departLane="southJunction_1" departPos="5.10" departSpeed="3.02" departDelay="5.74" arrival="165.00" arrivalLane="junctionNorth_0" arrivalPos="492.80" arrivalSpeed="21.21" duration="109.00" routeLength="995.01" waitingTime="0.00" waitingCount="0" stopTime="0.00" timeLoss="63.65" rerouteNo="0" devices="tripinfo_southNorth.9 ssm_southNorth.9" vType="carCustom" speedFactor="0.98" vaporized=""/>
    <tripinfo id="westEastTop.10" depart="43.00" departLane="westJunction_1" departPos="5.10" departSpeed="3.97" departDelay="18.98" arrival="168.00" arrivalLane="junctionEast_1" arrivalPos="492.80" arrivalSpeed="22.13" duration="125.00" routeLength="994.90" waitingTime="1.00" waitingCount="1" stopTime="0.00" timeLoss="79.27" rerouteNo="0" devices="tripinfo_westEastTop.10 ssm_westEastTop.10" vType="carCustom" speedFactor="1.09" vaporized=""/>
    <tripinfo id="westEastBottom0.4" depart="101.00" departLane="westJunction_0" departPos="5.10" departSpeed="16.44" departDelay="0.32" arrival="170.00" arrivalLane="junctionEast_0" arrivalPos="492.80" arrivalSpeed="21.07" duration="69.00" routeLength="994.90" waitingTime="0.00" waitingCount="0" stopTime="0.00" timeLoss="23.49" rerouteNo="0" devices="tripinfo_westEastBottom0.4 ssm_westEastBottom0.4" vType="carCustom" speedFactor="0.87" vaporized=""/>
    <tripinfo id="southNorth.10" depart="61.00" departLane="southJunction_1" departPos="5.10" departSpeed="3.70" departDelay="6.75" arrival="173.00" arrivalLane="junctionNorth_0" arrivalPos="492.80" arrivalSpeed="21.02" duration="112.00" routeLength="995.01" waitingTime="0.00" waitingCount="0" stopTime="0.00" timeLoss="66.50" rerouteNo="0" devices="tripinfo_southNorth.10 ssm_southNorth.10" vType="carCustom" speedFactor="1.04" vaporized=""/>
    <tripinfo id="westEastTop.11" depart="47.00" departLane="westJunction_1" departPos="5.10" departSpeed="3.51" departDelay="20.39" arrival="175.00" arrivalLane="junctionEast_1" arrivalPos="492.80" arrivalSpeed="21.95" duration="128.00" routeLength="994.90" waitingTime="0.00" waitingCount="0" stopTime="0.00" timeLoss="82.73" rerouteNo="0" devices="tripinfo_westEastTop.11 ssm_westEastTop.11" vType="carCustom" speedFactor="0.97" vaporized=""/>
    <tripinfo id="southEast.7" depart="90.00" departLane="southJunction_0" departPos="5.10" departSpeed="5.87" departDelay="0.20" arrival="177.00" arrivalLane="junctionEast_0" arrivalPos="492.80" arrivalSpeed="21.67" duration="87.00" routeLength="989.53" waitingTime="0.00" waitingCount="0" stopTime="0.00" timeLoss="41.76" rerouteNo="0" devices="tripinfo_southEast.7 ssm_southEast.7" vType="carCustom" speedFactor="1.13" vaporized=""/>
    <tripinfo id="southNorth.11" depart="66.00" departLane="southJunction_1" departPos="5.10" departSpeed="3.52" departDelay="0.75" arrival="181.00" arrivalLane="junctionNorth_0" arrivalPos="492.80" arrivalSpeed="21.98" duration="115.00" routeLength="995.01" waitingTime="3.00" waitingCount="1" stopTime="0.00" timeLoss="69.71" rerouteNo="0" devices="tripinfo_southNorth.11 ssm_southNorth.11" vType="carCustom" speedFactor="0.84" vaporized=""/>
    <tripinfo id="westEastTop.12" depart="52.00" departLane="westJunction_1" departPos="5.10" departSpeed="3.68" departDelay="17.25" arrival="182.00" arrivalLane="junctionEast_1" arrivalPos="492.80" arrivalSpeed="21.93" duration="130.00" routeLength="994.90" waitingTime="1.00" waitingCount="1" stopTime="0.00" timeLoss="84.66" rerouteNo="0" devices="tripinfo_westEastTop.12 ssm_westEastTop.12" vType="carCustom" speedFactor="1.16" vaporized=""/>
    <tripinfo id="southEast.8" depart="98.00" departLane="southJunction_0" departPos="5.10" departSpeed="6.13" departDelay="0.02" arrival="185.00" arrivalLane="junctionEast_0" arrivalPos="492.80" arrivalSpeed="21.84" duration="87.00" routeLength="989.53" waitingTime="0.00" waitingCount="0" stopTime="0.00" timeLoss="41.43" rerouteNo="0" devices="tripinfo_southEast.8 ssm_southEast.8" vType="carCustom" speedFactor="1.05" vaporized=""/>
    <tripinfo id="westEastTop.13" depart="56.00" departLane="westJunction_1" departPos="5.10" departSpeed="2.28" departDelay="19.32" arrival="189.00" arrivalLane="junctionEast_1" arrivalPos="492.80" arrivalSpeed="21.74" duration="133.00" routeLength="994.90" waitingTime="4.00" waitingCount="1" stopTime="0.00" timeLoss="88.02" rerouteNo="0" devices="tripinfo_westEastTop.13 ssm_westEastTop.13" vType="carCustom" speedFactor="1.20" vaporized=""/>
    <tripinfo id="southNorth.12" depart="77.00" departLane="southJunction_1" departPos="5.10" departSpeed="4.89" departDelay="0.04" arrival="190.00" arrivalLane="junctionNorth_0" arrivalPos="492.80" arrivalSpeed="21.25" duration="113.00" routeLength="995.01" waitingTime="2.00" waitingCount="1" stopTime="0.00" timeLoss="67.29" rerouteNo="0" devices="tripinfo_southNorth.12 ssm_southNorth.12" vType="carCustom" speedFactor="0.99" vaporized=""/>
    <tripinfo id="westEastBottom0.6" depart="116.00" departLane="westJunction_0" departPos="5.10" departSpeed="14.54" departDelay="0.32" arrival="193.00" arrivalLane="junctionEast_0" arrivalPos="492.80" arrivalSpeed="21.14" duration="77.00" routeLength="994.90" waitingTime="0.00" waitingCount="0" stopTime="0.00" timeLoss="31.32" rerouteNo="0" devices="tripinfo_westEastBottom0.6 ssm_westEastBottom0.6" vType="carCustom" speedFactor="0.94" vaporized=""/>
    <tripinfo id="southEast.9" depart="114.00" departLane="southJunction_0" departPos="5.10" departSpeed="8.55" departDelay="0.33" arrival="197.00" arrivalLane="junctionEast_1" arrivalPos="492.80" arrivalSpeed="21.41" duration="83.00" routeLength="989.53" waitingTime="0.00" waitingCount="0" stopTime="0.00" timeLoss="37.09" rerouteNo="0" devices="tripinfo_southEast.9 ssm_southEast.9" vType="carCustom" speedFactor="1.14" vaporized=""/>
    <tripinfo id="southNorth.13" depart="80.00" departLane="southJunction_1" departPos="5.10" departSpeed="6.13" departDelay="2.35" arrival="198.00" arrivalLane="junctionNorth_0" arrivalPos="492.80" arrivalSpeed="21.76" duration="118.00" routeLength="995.01" waitingTime="4.00" waitingCount="1" stopTime="0.00" timeLoss="73.03" rerouteNo="0" devices="tripinfo_southNorth.13 ssm_southNorth.13" vType="carCustom" speedFactor="0.99" vaporized=""/>
    <tripinfo id="westEastBottom0.7" depart="118.00" departLane="westJunction_0" departPos="5.10" departSpeed="12.73" departDelay="1.34" arrival="200.00" arrivalLane="junctionEast_0" arrivalPos="492.80" arrivalSpeed="21.18" duration="82.00" routeLength="994.90" waitingTime="0.00" waitingCount="0" stopTime="0.00" timeLoss="36.74" rerouteNo="0" devices="tripinfo_westEastBottom0.7 ssm_westEastBottom0.7" vType="carCustom" speedFactor="0.88" vaporized=""/>
    <tripinfo id="westEastTop.14" depart="62.00" departLane="westJunction_1" departPos="5.10" departSpeed="3.69" departDelay="24.10" arrival="204.00" arrivalLane="junctionEast_1" arrivalPos="492.80" arrivalSpeed="21.38" duration="142.00" routeLength="994.90" waitingTime="4.00" waitingCount="1" stopTime="0.00" timeLoss="96.53" rerouteNo="0" devices="tripinfo_westEastTop.14 ssm_westEastTop.14" vType="carCustom" speedFactor="0.96" vaporized=""/>
    <tripinfo id="southNorth.14" depart="87.00" departLane="southJunction_1" departPos="5.10" departSpeed="4.92" departDelay="0.40" arrival="206.00" arrivalLane="junctionNorth_0" arrivalPos="492.80" arrivalSpeed="21.49" duration="119.00" routeLength="995.01" waitingTime="1.00" waitingCount="1" stopTime="0.00" timeLoss="73.77" rerouteNo="0" devices="tripinfo_southNorth.14 ssm_southNorth.14" vType="carCustom" speedFactor="1.03" vaporized=""/>
    <tripinfo id="southEast.10" depart="129.00" departLane="southJunction_0" departPos="5.10" departSpeed="11.31" departDelay="0.42" arrival="207.00" arrivalLane="junctionEast_0" arrivalPos="492.80" arrivalSpeed="21.08" duration="78.00" routeLength="989.53" waitingTime="0.00" waitingCount="0" stopTime="0.00" timeLoss="31.71" rerouteNo="0" devices="tripinfo_southEast.10 ssm_southEast.10" vType="carCustom" speedFactor="0.87" vaporized=""/>
    <tripinfo id="westEastTop.15" depart="67.00" departLane="westJunction_1" departPos="5.10" departSpeed="3.32" departDelay="27.68" arrival="211.00" arrivalLane="junctionEast_1" arrivalPos="492.80" arrivalSpeed="21.55" duration="144.00" routeLength="994.90" waitingTime="4.00" waitingCount="2" stopTime="0.00" timeLoss="98.70" rerouteNo="0" devices="tripinfo_westEastTop.15 ssm_westEastTop.15" vType="carCustom" speedFactor="1.03" vaporized=""/>
    <tripinfo id="southNorth.15" depart="92.00" departLane="southJunction_1" departPos="5.10" departSpeed="5.44" departDelay="0.51" arrival="214.00" arrivalLane="junctionNorth_0" arrivalPos="492.80" arrivalSpeed="20.92" duration="122.00" routeLength="995.01" waitingTime="0.00" waitingCount="0" stopTime="0.00" timeLoss="76.36" rerouteNo="0" devices="tripinfo_southNorth.15 ssm_southNorth.15" vType="carCustom" speedFactor="1.27" vaporized=""/>
    <tripinfo id="westEastBottom0.8" depart="139.00" departLane="westJunction_0" departPos="5.10" departSpeed="11.60" departDelay="0.55" arrival="214.00" arrivalLane="junctionEast_0" arrivalPos="492.80" arrivalSpeed="21.37" duration="75.00" routeLength="994.90" waitingTime="0.00" waitingCount="0" stopTime="0.00" timeLoss="29.94" rerouteNo="0" devices="tripinfo_westEastBottom0.8 ssm_westEastBottom0.8" vType="carCustom" speedFactor="1.06" vaporized=""/>
    <tripinfo id="westEastTop.16" depart="71.00" departLane="westJunction_1" departPos="5.10" departSpeed="2.38" departDelay="19.38" arrival="218.00" arrivalLane="junctionEast_1" arrivalPos="492.80" arrivalSpeed="21.89" duration="147.00" routeLength="994.90" waitingTime="2.00" waitingCount="1" stopTime="0.00" timeLoss="101.59" rerouteNo="0" devices="tripinfo_westEastTop.16 ssm_westEastTop.16" vType="carCustom" speedFactor="0.91" vaporized=""/>
    <tripinfo id="southEast.11" depart="131.00" departLane="southJunction_0" departPos="5.10" departSpeed="15.90" departDelay="0.66" arrival="221.00" arrivalLane="junctionEast_0" arrivalPos="492.80" arrivalSpeed="22.14" duration="90.00" routeLength="989.53" waitingTime="0.00" waitingCount="0" stopTime="0.00" timeLoss="43.91" rerouteNo="0" devices="tripinfo_southEast.11 ssm_southEast.11" vType="carCustom" speedFactor="1.02" vaporized=""/>
    <tripinfo id="southNorth.16" depart="96.00" departLane="southJunction_1" departPos="5.10" departSpeed="5.14" departDelay="0.88" arrival="222.00" arrivalLane="junctionNorth_0" arrivalPos="492.80" arrivalSpeed="21.32" duration="126.00" routeLength="995.01" waitingTime="4.00" waitingCount="1" stopTime="0.00" timeLoss="80.35" rerouteNo="0" devices="tripinfo_southNorth.16 ssm_southNorth.16" vType="carCustom" speedFactor="0.90" vaporized=""/>
    <tripinfo id="westEastTop.17" depart="76.00" departLane="westJunction_1" departPos="5.10" departSpeed="2.05" departDelay="19.92" arrival="225.00" arrivalLane="junctionEast_1" arrivalPos="492.80" arrivalSpeed="21.24" duration="149.00" routeLength="994.90" waitingTime="1.00" waitingCount="1" stopTime="0.00" timeLoss="103.54" rerouteNo="0" devices="tripinfo_westEastTop.17 ssm_westEastTop.17" vType="carCustom" speedFactor="1.02" vaporized=""/>
    <tripinfo id="westEastBottom0.9" depart="141.00" departLane="westJunction_0" departPos="5.10" departSpeed="14.61" departDelay="0.58" arrival="228.00" arrivalLane="junctionEast_0" arrivalPos="492.80" arrivalSpeed="22.11" duration="87.00" routeLength="994.90" waitingTime="0.00" waitingCount="0" stopTime="0.00" timeLoss="41.64" rerouteNo="0" devices="tripinfo_westEastBottom0.9 ssm_westEastBottom0.9" vType="carCustom" speedFactor="0.87" vaporized=""/>
    <tripinfo id="southNorth.17" depart="109.00" departLane="southJunction_1" departPos="5.10" departSpeed="5.65" departDelay="0.57" arrival="230.00" arrivalLane="junctionNorth_0" arrivalPos="492.80" arrivalSpeed="22.08" duration="121.00" routeLength="995.01" waitingTime="5.00" waitingCount="1" stopTime="0.00" timeLoss="75.52" rerouteNo="0" devices="tripinfo_southNorth.17 ssm_southNorth.17" vType="carCustom" speedFactor="1.10" vaporized=""/>
    <tripinfo id="southEast.12" depart="145.00" departLane="southJunction_0" departPos="5.10" departSpeed="11.05" departDelay="0.34" arrival="232.00" arrivalLane="junctionEast_1" arrivalPos="492.80" arrivalSpeed="21.66" duration="87.00" routeLength="989.53" waitingTime="0.00" waitingCount="0" stopTime="0.00" timeLoss="40.56" rerouteNo="0" devices="tripinfo_southEast.12 ssm_southEast.12" vType="carCustom" speedFactor="1.13" vaporized=""/>
    <tripinfo id="westEastBottom0.10" depart="147.00" departLane="westJunction_0" departPos="5.10" departSpeed="10.22" departDelay="0.78" arrival="235.00" arrivalLane="junctionEast_0" arrivalPos="492.80" arrivalSpeed="21.61" duration="88.00" routeLength="994.90" waitingTime="0.00" waitingCount="0" stopTime="0.00" timeLoss="42.35" rerouteNo="0" devices="tripinfo_westEastBottom0.10 ssm_westEastBottom0.10" vType="carCustom" speedFactor="0.95" vaporized=""/>
    <tripinfo id="southNorth.18" depart="113.00" departLane="southJunction_1" departPos="5.10" departSpeed="8.20" departDelay="0.64" arrival="237.00" arrivalLane="junctionNorth_0" arrivalPos="492.80" arrivalSpeed="22.13" duration="124.00" routeLength="995.01" waitingTime="3.00" waitingCount="1" stopTime="0.00" timeLoss="79.16" rerouteNo="0" devices="tripinfo_southNorth.18 ssm_southNorth.18" vType="carCustom" speedFactor="0.95" vaporized=""/>
    <tripinfo id="westEastTop.18" depart="82.00" departLane="westJunction_1" departPos="5.10" departSpeed="2.40" departDelay="24.43" arrival="238.00" arrivalLane="junctionEast_1" arrivalPos="492.80" arrivalSpeed="21.86" duration="156.00" routeLength="994.90" waitingTime="4.00" waitingCount="1" stopTime="0.00" timeLoss="111.21" rerouteNo="0" devices="tripinfo_westEastTop.18 ssm_westEastTop.18" vType="carCustom" speedFactor="1.22" vaporized=""/>
    <tripinfo id="southEast.13" depart="164.00" departLane="southJunction_0" departPos="5.10" departSpeed="12.47" departDelay="0.76" arrival="241.00" arrivalLane="junctionEast_0" arrivalPos="492.80" arrivalSpeed="21.16" duration="77.00" routeLength="989.53" waitingTime="0.00" waitingCount="0" stopTime="0.00" timeLoss="31.71" rerouteNo="0" devices="tripinfo_southEast.13 ssm_southEast.13" vType="carCustom" speedFactor="1.12" vaporized=""/>