<?xml version="1.0" encoding="UTF-8"?>

<!-- generated on 2025-04-29 07:39:17 by Eclipse SUMO sumo Version 1.20.0
<configuration xmlns:xsi="http://www.w3.org/2001/XMLSchema-instance" xsi:noNamespaceSchemaLocation="http://sumo.dlr.de/xsd/sumoConfiguration.xsd">

    <input>
        <net-file value="nets/2lane_unprotected_right/2lane_unprotected_right.net.xml"/>
        <route-files value="nets/2lane_unprotected_right/2lane_unprotected_right.rou.xml"/>
    </input>

    <output>
        <tripinfo-output value="traces/transs50f0.5_s50_f1_random/0118_tripinfo.xml"/>
        <collision-output value="traces/transs50f0.5_s50_f1_random/0118_collisions.xml"/>
        <statistic-output value="traces/transs50f0.5_s50_f1_random/0118_statistics.xml"/>
    </output>

    <processing>
        <collision.action value="teleport"/>
        <collision.check-junctions value="true"/>
        <time-to-teleport value="-1"/>
        <waiting-time-memory value="1000"/>
        <max-depart-delay value="-1"/>
        <default.speeddev value="0.1"/>
    </processing>

    <report>
        <no-warnings value="true"/>
    </report>

    <ssm_device>
        <device.ssm.probability value="1.0"/>
        <device.ssm.measures value="BR"/>
        <device.ssm.file value="/Users/finn/Code/CausalKnowledgeTransfer-4-SafeRL/traces/transs50f0.5_s50_f1_random/0118_ssm.xml"/>
    </ssm_device>

    <traci_server>
        <remote-port value="63866"/>
    </traci_server>

    <random_number>
        <random value="true"/>
    </random_number>

</configuration>
-->

<tripinfos xmlns:xsi="http://www.w3.org/2001/XMLSchema-instance" xsi:noNamespaceSchemaLocation="http://sumo.dlr.de/xsd/tripinfo_file.xsd">
    <tripinfo id="southEast.0" depart="6.00" departLane="southJunction_0" departPos="5.10" departSpeed="27.78" departDelay="0.26" arrival="29.00" arrivalLane="junctionEast_0" arrivalPos="492.80" arrivalSpeed="5.05" duration="23.00" routeLength="989.53" waitingTime="0.00" waitingCount="0" stopTime="0.00" timeLoss="3.50" rerouteNo="0" devices="tripinfo_southEast.0 ssm_southEast.0" vType="carCustom" speedFactor="0.90" vaporized="teleport"/>
    <tripinfo id="southNorth.0" depart="5.00" departLane="southJunction_1" departPos="5.10" departSpeed="27.78" departDelay="0.47" arrival="42.00" arrivalLane="junctionNorth_0" arrivalPos="492.80" arrivalSpeed="26.54" duration="37.00" routeLength="995.01" waitingTime="0.00" waitingCount="0" stopTime="0.00" timeLoss="0.79" rerouteNo="0" devices="tripinfo_southNorth.0 ssm_southNorth.0" vType="carCustom" speedFactor="1.09" vaporized=""/>
    <tripinfo id="westEastBottom0.0" depart="9.00" departLane="westJunction_0" departPos="5.10" departSpeed="27.78" departDelay="0.44" arrival="47.00" arrivalLane="junctionEast_0" arrivalPos="492.80" arrivalSpeed="27.06" duration="38.00" routeLength="994.90" waitingTime="0.00" waitingCount="0" stopTime="0.00" timeLoss="2.17" rerouteNo="0" devices="tripinfo_westEastBottom0.0 ssm_westEastBottom0.0" vType="carCustom" speedFactor="0.95" vaporized=""/>
    <tripinfo id="westEastTop.0" depart="11.00" departLane="westJunction_1" departPos="5.10" departSpeed="27.78" departDelay="0.22" arrival="48.00" arrivalLane="junctionEast_1" arrivalPos="492.80" arrivalSpeed="26.68" duration="37.00" routeLength="994.90" waitingTime="0.00" waitingCount="0" stopTime="0.00" timeLoss="0.92" rerouteNo="0" devices="tripinfo_westEastTop.0 ssm_westEastTop.0" vType="carCustom" speedFactor="0.94" vaporized=""/>
    <tripinfo id="westEastBottom0.1" depart="11.00" departLane="westJunction_0" departPos="5.10" departSpeed="26.95" departDelay="0.27" arrival="50.00" arrivalLane="junctionEast_0" arrivalPos="492.80" arrivalSpeed="26.77" duration="39.00" routeLength="994.90" waitingTime="0.00" waitingCount="0" stopTime="0.00" timeLoss="2.74" rerouteNo="0" devices="tripinfo_westEastBottom0.1 ssm_westEastBottom0.1" vType="carCustom" speedFactor="0.86" vaporized=""/>
    <tripinfo id="southNorth.1" depart="17.00" departLane="southJunction_1" departPos="5.10" departSpeed="27.72" departDelay="0.45" arrival="54.00" arrivalLane="junctionNorth_0" arrivalPos="492.80" arrivalSpeed="27.38" duration="37.00" routeLength="995.01" waitingTime="0.00" waitingCount="0" stopTime="0.00" timeLoss="0.94" rerouteNo="0" devices="tripinfo_southNorth.1 ssm_southNorth.1" vType="carCustom" speedFactor="0.92" vaporized=""/>
    <tripinfo id="westEastTop.1" depart="17.00" departLane="westJunction_1" departPos="5.10" departSpeed="27.39" departDelay="0.87" arrival="57.00" arrivalLane="junctionEast_1" arrivalPos="492.80" arrivalSpeed="27.13" duration="40.00" routeLength="994.90" waitingTime="0.00" waitingCount="0" stopTime="0.00" timeLoss="4.18" rerouteNo="0" devices="tripinfo_westEastTop.1 ssm_westEastTop.1" vType="carCustom" speedFactor="0.99" vaporized=""/>
    <tripinfo id="westEastBottom0.2" depart="16.00" departLane="westJunction_0" departPos="5.10" departSpeed="26.91" departDelay="0.86" arrival="59.00" arrivalLane="junctionEast_0" arrivalPos="492.80" arrivalSpeed="26.96" duration="43.00" routeLength="994.90" waitingTime="0.00" waitingCount="0" stopTime="0.00" timeLoss="6.34" rerouteNo="0" devices="tripinfo_westEastBottom0.2 ssm_westEastBottom0.2" vType="carCustom" speedFactor="1.00" vaporized=""/>
    <tripinfo id="westEastTop.2" depart="20.00" departLane="westJunction_1" departPos="5.10" departSpeed="27.72" departDelay="0.36" arrival="60.00" arrivalLane="junctionEast_1" arrivalPos="492.80" arrivalSpeed="27.73" duration="40.00" routeLength="994.90" waitingTime="0.00" waitingCount="0" stopTime="0.00" timeLoss="3.70" rerouteNo="0" devices="tripinfo_westEastTop.2 ssm_westEastTop.2" vType="carCustom" speedFactor="1.20" vaporized=""/>
    <tripinfo id="westEastTop.3" depart="28.00" departLane="westJunction_1" departPos="5.10" departSpeed="27.38" departDelay="0.05" arrival="65.00" arrivalLane="junctionEast_1" arrivalPos="492.80" arrivalSpeed="26.84" duration="37.00" routeLength="994.90" waitingTime="0.00" waitingCount="0" stopTime="0.00" timeLoss="1.04" rerouteNo="0" devices="tripinfo_westEastTop.3 ssm_westEastTop.3" vType="carCustom" speedFactor="0.86" vaporized=""/>
    <tripinfo id="southEast.1" depart="20.00" departLane="southJunction_0" departPos="5.10" departSpeed="26.80" departDelay="0.58" arrival="67.00" arrivalLane="junctionEast_0" arrivalPos="492.80" arrivalSpeed="26.96" duration="47.00" routeLength="989.53" waitingTime="0.00" waitingCount="0" stopTime="0.00" timeLoss="9.05" rerouteNo="0" devices="tripinfo_southEast.1 ssm_southEast.1" vType="carCustom" speedFactor="0.81" vaporized=""/>
    <tripinfo id="westEastTop.4" depart="30.00" departLane="westJunction_1" departPos="5.10" departSpeed="27.56" departDelay="1.51" arrival="68.00" arrivalLane="junctionEast_1" arrivalPos="492.80" arrivalSpeed="27.67" duration="38.00" routeLength="994.90" waitingTime="0.00" waitingCount="0" stopTime="0.00" timeLoss="1.54" rerouteNo="0" devices="tripinfo_westEastTop.4 ssm_westEastTop.4" vType="carCustom" speedFactor="1.04" vaporized=""/>
    <tripinfo id="southEast.2" depart="23.00" departLane="southJunction_0" departPos="5.10" departSpeed="27.04" departDelay="0.80" arrival="70.00" arrivalLane="junctionEast_0" arrivalPos="492.80" arrivalSpeed="26.64" duration="47.00" routeLength="989.53" waitingTime="0.00" waitingCount="0" stopTime="0.00" timeLoss="10.12" rerouteNo="0" devices="tripinfo_southEast.2 ssm_southEast.2" vType="carCustom" speedFactor="0.91" vaporized=""/>
    <tripinfo id="westEastBottom0.3" depart="32.00" departLane="westJunction_0" departPos="5.10" departSpeed="21.79" departDelay="0.96" arrival="70.00" arrivalLane="junctionEast_1" arrivalPos="492.80" arrivalSpeed="27.36" duration="38.00" routeLength="994.90" waitingTime="0.00" waitingCount="0" stopTime="0.00" timeLoss="2.00" rerouteNo="0" devices="tripinfo_westEastBottom0.3 ssm_westEastBottom0.3" vType="carCustom" speedFactor="0.74" vaporized=""/>
    <tripinfo id="southEast.3" depart="26.00" departLane="southJunction_0" departPos="5.10" departSpeed="26.97" departDelay="0.54" arrival="78.00" arrivalLane="junctionEast_0" arrivalPos="492.80" arrivalSpeed="27.32" duration="52.00" routeLength="989.53" waitingTime="1.00" waitingCount="1" stopTime="0.00" timeLoss="14.94" rerouteNo="0" devices="tripinfo_southEast.3 ssm_southEast.3" vType="carCustom" speedFactor="1.01" vaporized=""/>
    <tripinfo id="southEast.4" depart="34.00" departLane="southJunction_0" departPos="5.10" departSpeed="26.77" departDelay="0.51" arrival="81.00" arrivalLane="junctionEast_0" arrivalPos="492.80" arrivalSpeed="26.68" duration="47.00" routeLength="989.53" waitingTime="0.00" waitingCount="0" stopTime="0.00" timeLoss="9.86" rerouteNo="0" devices="tripinfo_southEast.4 ssm_southEast.4" vType="carCustom" speedFactor="1.02" vaporized=""/>
    <tripinfo id="westEastTop.5" depart="35.00" departLane="westJunction_1" departPos="5.10" departSpeed="26.39" departDelay="0.86" arrival="82.00" arrivalLane="junctionEast_1" arrivalPos="492.80" arrivalSpeed="27.19" duration="47.00" routeLength="994.90" waitingTime="4.00" waitingCount="1" stopTime="0.00" timeLoss="10.60" rerouteNo="0" devices="tripinfo_westEastTop.5 ssm_westEastTop.5" vType="carCustom" speedFactor="1.04" vaporized=""/>
    <tripinfo id="westEastBottom0.4" depart="37.00" departLane="westJunction_0" departPos="5.10" departSpeed="26.67" departDelay="0.27" arrival="83.00" arrivalLane="junctionEast_0" arrivalPos="492.80" arrivalSpeed="27.04" duration="46.00" routeLength="994.90" waitingTime="0.00" waitingCount="0" stopTime="0.00" timeLoss="9.68" rerouteNo="0" devices="tripinfo_westEastBottom0.4 ssm_westEastBottom0.4" vType="carCustom" speedFactor="1.10" vaporized=""/>
    <tripinfo id="westEastTop.6" depart="37.00" departLane="westJunction_1" departPos="5.10" departSpeed="26.94" departDelay="2.62" arrival="84.00" arrivalLane="junctionEast_1" arrivalPos="492.80" arrivalSpeed="27.56" duration="47.00" routeLength="994.90" waitingTime="0.00" waitingCount="0" stopTime="0.00" timeLoss="11.13" rerouteNo="0" devices="tripinfo_westEastTop.6 ssm_westEastTop.6" vType="carCustom" speedFactor="0.97" vaporized=""/>
    <tripinfo id="southEast.5" depart="36.00" departLane="southJunction_0" departPos="5.10" departSpeed="27.19" departDelay="2.41" arrival="85.00" arrivalLane="junctionEast_0" arrivalPos="492.80" arrivalSpeed="26.57" duration="49.00" routeLength="989.53" waitingTime="0.00" waitingCount="0" stopTime="0.00" timeLoss="11.98" rerouteNo="0" devices="tripinfo_southEast.5 ssm_southEast.5" vType="carCustom" speedFactor="0.93" vaporized=""/>
    <tripinfo id="southNorth.2" depart="47.00" departLane="southJunction_1" departPos="5.10" departSpeed="27.78" departDelay="0.48" arrival="86.00" arrivalLane="junctionNorth_0" arrivalPos="492.80" arrivalSpeed="27.13" duration="39.00" routeLength="995.01" waitingTime="0.00" waitingCount="0" stopTime="0.00" timeLoss="2.25" rerouteNo="0" devices="tripinfo_southNorth.2 ssm_southNorth.2" vType="carCustom" speedFactor="0.99" vaporized=""/>
    <tripinfo id="westEastTop.7" depart="43.00" departLane="westJunction_1" departPos="5.10" departSpeed="26.76" departDelay="0.38" arrival="87.00" arrivalLane="junctionEast_1" arrivalPos="492.80" arrivalSpeed="27.26" duration="44.00" routeLength="994.90" waitingTime="0.00" waitingCount="0" stopTime="0.00" timeLoss="7.52" rerouteNo="0" devices="tripinfo_westEastTop.7 ssm_westEastTop.7" vType="carCustom" speedFactor="0.97" vaporized=""/>
    <tripinfo id="southEast.6" depart="38.00" departLane="southJunction_0" departPos="5.10" departSpeed="25.28" departDelay="1.21" arrival="88.00" arrivalLane="junctionEast_0" arrivalPos="492.80" arrivalSpeed="26.76" duration="50.00" routeLength="989.53" waitingTime="0.00" waitingCount="0" stopTime="0.00" timeLoss="12.42" rerouteNo="0" devices="tripinfo_southEast.6 ssm_southEast.6" vType="carCustom" speedFactor="1.07" vaporized=""/>
    <tripinfo id="southNorth.3" depart="49.00" departLane="southJunction_1" departPos="5.10" departSpeed="26.97" departDelay="2.07" arrival="88.00" arrivalLane="junctionNorth_0" arrivalPos="492.80" arrivalSpeed="26.54" duration="39.00" routeLength="995.01" waitingTime="0.00" waitingCount="0" stopTime="0.00" timeLoss="2.77" rerouteNo="0" devices="tripinfo_southNorth.3 ssm_southNorth.3" vType="carCustom" speedFactor="1.05" vaporized=""/>
    <tripinfo id="southEast.7" depart="41.00" departLane="southJunction_0" departPos="5.10" departSpeed="25.17" departDelay="0.28" arrival="91.00" arrivalLane="junctionEast_0" arrivalPos="492.80" arrivalSpeed="27.05" duration="50.00" routeLength="989.53" waitingTime="0.00" waitingCount="0" stopTime="0.00" timeLoss="12.47" rerouteNo="0" devices="tripinfo_southEast.7 ssm_southEast.7" vType="carCustom" speedFactor="1.07" vaporized=""/>
    <tripinfo id="westEastTop.8" depart="48.00" departLane="westJunction_1" departPos="5.10" departSpeed="26.58" departDelay="0.53" arrival="92.00" arrivalLane="junctionEast_1" arrivalPos="492.80" arrivalSpeed="27.07" duration="44.00" routeLength="994.90" waitingTime="0.00" waitingCount="0" stopTime="0.00" timeLoss="7.69" rerouteNo="0" devices="tripinfo_westEastTop.8 ssm_westEastTop.8" vType="carCustom" speedFactor="0.75" vaporized=""/>
    <tripinfo id="westEastTop.9" depart="50.00" departLane="westJunction_1" departPos="5.10" departSpeed="27.28" departDelay="1.67" arrival="94.00" arrivalLane="junctionEast_1" arrivalPos="492.80" arrivalSpeed="26.58" duration="44.00" routeLength="994.90" waitingTime="0.00" waitingCount="0" stopTime="0.00" timeLoss="8.14" rerouteNo="0" devices="tripinfo_westEastTop.9 ssm_westEastTop.9" vType="carCustom" speedFactor="0.96" vaporized=""/>
    <tripinfo id="westEastBottom0.5" depart="44.00" departLane="westJunction_0" departPos="5.10" departSpeed="26.94" departDelay="0.02" arrival="95.00" arrivalLane="junctionEast_0" arrivalPos="492.80" arrivalSpeed="27.31" duration="51.00" routeLength="994.90" waitingTime="5.00" waitingCount="1" stopTime="0.00" timeLoss="14.68" rerouteNo="0" devices="tripinfo_westEastBottom0.5 ssm_westEastBottom0.5" vType="carCustom" speedFactor="1.02" vaporized=""/>
    <tripinfo id="westEastBottom0.6" depart="49.00" departLane="westJunction_0" departPos="5.10" departSpeed="26.58" departDelay="0.28" arrival="97.00" arrivalLane="junctionEast_0" arrivalPos="492.80" arrivalSpeed="27.09" duration="48.00" routeLength="994.90" waitingTime="0.00" waitingCount="0" stopTime="0.00" timeLoss="12.02" rerouteNo="0" devices="tripinfo_westEastBottom0.6 ssm_westEastBottom0.6" vType="carCustom" speedFactor="1.05" vaporized=""/>
    <tripinfo id="westEastTop.10" depart="57.00" departLane="westJunction_1" departPos="5.10" departSpeed="26.37" departDelay="0.49" arrival="97.00" arrivalLane="junctionEast_1" arrivalPos="492.80" arrivalSpeed="26.96" duration="40.00" routeLength="994.90" waitingTime="0.00" waitingCount="0" stopTime="0.00" timeLoss="3.56" rerouteNo="0" devices="tripinfo_westEastTop.10 ssm_westEastTop.10" vType="carCustom" speedFactor="0.88" vaporized=""/>
    <tripinfo id="westEastBottom0.8" depart="58.00" departLane="westJunction_0" departPos="5.10" departSpeed="27.35" departDelay="1.52" arrival="99.00" arrivalLane="junctionEast_1" arrivalPos="492.80" arrivalSpeed="27.74" duration="41.00" routeLength="994.90" waitingTime="0.00" waitingCount="0" stopTime="0.00" timeLoss="4.84" rerouteNo="0" devices="tripinfo_westEastBottom0.8 ssm_westEastBottom0.8" vType="carCustom" speedFactor="1.04" vaporized=""/>
    <tripinfo id="westEastBottom0.7" depart="56.00" departLane="westJunction_0" departPos="5.10" departSpeed="26.50" departDelay="0.24" arrival="100.00" arrivalLane="junctionEast_0" arrivalPos="492.80" arrivalSpeed="26.98" duration="44.00" routeLength="994.90" waitingTime="0.00" waitingCount="0" stopTime="0.00" timeLoss="7.39" rerouteNo="0" devices="tripinfo_westEastBottom0.7 ssm_westEastBottom0.7" vType="carCustom" speedFactor="0.78" vaporized=""/>
    <tripinfo id="westEastTop.11" depart="63.00" departLane="westJunction_1" departPos="5.10" departSpeed="27.32" departDelay="0.56" arrival="102.00" arrivalLane="junctionEast_1" arrivalPos="492.80" arrivalSpeed="27.26" duration="39.00" routeLength="994.90" waitingTime="0.00" waitingCount="0" stopTime="0.00" timeLoss="2.32" rerouteNo="0" devices="tripinfo_westEastTop.11 ssm_westEastTop.11" vType="carCustom" speedFactor="1.00" vaporized=""/>
    <tripinfo id="westEastTop.12" depart="65.00" departLane="westJunction_1" departPos="5.10" departSpeed="27.15" departDelay="0.17" arrival="104.00" arrivalLane="junctionEast_1" arrivalPos="492.80" arrivalSpeed="26.89" duration="39.00" routeLength="994.90" waitingTime="0.00" waitingCount="0" stopTime="0.00" timeLoss="2.78" rerouteNo="0" devices="tripinfo_westEastTop.12 ssm_westEastTop.12" vType="carCustom" speedFactor="0.86" vaporized=""/>
    <tripinfo id="westEastBottom0.9" depart="66.00" departLane="westJunction_0" departPos="5.10" departSpeed="26.57" departDelay="0.47" arrival="105.00" arrivalLane="junctionEast_0" arrivalPos="492.80" arrivalSpeed="27.75" duration="39.00" routeLength="994.90" waitingTime="0.00" waitingCount="0" stopTime="0.00" timeLoss="2.29" rerouteNo="0" devices="tripinfo_westEastBottom0.9 ssm_westEastBottom0.9" vType="carCustom" speedFactor="1.04" vaporized=""/>
    <tripinfo id="westEastTop.13" depart="67.00" departLane="westJunction_1" departPos="5.10" departSpeed="25.46" departDelay="1.70" arrival="107.00" arrivalLane="junctionEast_1" arrivalPos="492.80" arrivalSpeed="26.57" duration="40.00" routeLength="994.90" waitingTime="0.00" waitingCount="0" stopTime="0.00" timeLoss="3.34" rerouteNo="0" devices="tripinfo_westEastTop.13 ssm_westEastTop.13" vType="carCustom" speedFactor="0.94" vaporized=""/>
    <tripinfo id="westEastBottom0.10" depart="72.00" departLane="westJunction_0" departPos="5.10" departSpeed="26.34" departDelay="0.62" arrival="109.00" arrivalLane="junctionEast_1" arrivalPos="492.80" arrivalSpeed="26.90" duration="37.00" routeLength="994.90" waitingTime="0.00" waitingCount="0" stopTime="0.00" timeLoss="0.92" rerouteNo="0" devices="tripinfo_westEastBottom0.10 ssm_westEastBottom0.10" vType="carCustom" speedFactor="0.88" vaporized=""/>
    <tripinfo id="southEast.8" depart="63.00" departLane="southJunction_0" departPos="5.10" departSpeed="9.89" departDelay="0.88" arrival="112.00" arrivalLane="junctionEast_0" arrivalPos="492.80" arrivalSpeed="27.75" duration="49.00" routeLength="989.53" waitingTime="0.00" waitingCount="0" stopTime="0.00" timeLoss="11.26" rerouteNo="0" devices="tripinfo_southEast.8 ssm_southEast.8" vType="carCustom" speedFactor="0.97" vaporized=""/>
    <tripinfo id="southEast.11" depart="89.00" departLane="southJunction_0" departPos="5.10" departSpeed="17.17" departDelay="0.59" arrival="112.00" arrivalLane="junctionEast_0" arrivalPos="492.80" arrivalSpeed="6.75" duration="23.00" routeLength="989.53" waitingTime="0.00" waitingCount="0" stopTime="0.00" timeLoss="4.28" rerouteNo="0" devices="tripinfo_southEast.11 ssm_southEast.11" vType="carCustom" speedFactor="1.10" vaporized="teleport"/>
    <tripinfo id="southEast.9" depart="70.00" departLane="southJunction_0" departPos="5.10" departSpeed="24.62" departDelay="0.99" arrival="115.00" arrivalLane="junctionEast_0" arrivalPos="492.80" arrivalSpeed="26.70" duration="45.00" routeLength="989.53" waitingTime="0.00" waitingCount="0" stopTime="0.00" timeLoss="8.56" rerouteNo="0" devices="tripinfo_southEast.9 ssm_southEast.9" vType="carCustom" speedFactor="1.08" vaporized=""/>
    <tripinfo id="southEast.10" depart="72.00" departLane="southJunction_0" departPos="5.10" departSpeed="27.35" departDelay="1.15" arrival="120.00" arrivalLane="junctionEast_0" arrivalPos="492.80" arrivalSpeed="26.54" duration="48.00" routeLength="989.53" waitingTime="0.00" waitingCount="0" stopTime="0.00" timeLoss="11.53" rerouteNo="0" devices="tripinfo_southEast.10 ssm_southEast.10" vType="carCustom" speedFactor="0.85" vaporized=""/>
    <tripinfo id="westEastTop.14" depart="80.00" departLane="westJunction_1" departPos="5.10" departSpeed="24.40" departDelay="0.83" arrival="121.00" arrivalLane="junctionEast_1" arrivalPos="492.80" arrivalSpeed="27.56" duration="41.00" routeLength="994.90" waitingTime="0.00" waitingCount="0" stopTime="0.00" timeLoss="4.45" rerouteNo="0" devices="tripinfo_westEastTop.14 ssm_westEastTop.14" vType="carCustom" speedFactor="0.85" vaporized=""/>
    <tripinfo id="westEastBottom0.11" depart="82.00" departLane="westJunction_0" departPos="5.10" departSpeed="27.27" departDelay="0.44" arrival="123.00" arrivalLane="junctionEast_1" arrivalPos="492.80" arrivalSpeed="26.83" duration="41.00" routeLength="994.90" waitingTime="0.00" waitingCount="0" stopTime="0.00" timeLoss="4.87" rerouteNo="0" devices="tripinfo_westEastBottom0.11 ssm_westEastBottom0.11" vType="carCustom" speedFactor="0.98" vaporized=""/>
    <tripinfo id="westEastBottom0.12" depart="84.00" departLane="westJunction_0" departPos="5.10" departSpeed="26.80" departDelay="1.63" arrival="126.00" arrivalLane="junctionEast_1" arrivalPos="492.80" arrivalSpeed="26.95" duration="42.00" routeLength="994.90" waitingTime="0.00" waitingCount="0" stopTime="0.00" timeLoss="5.30" rerouteNo="0" devices="tripinfo_westEastBottom0.12 ssm_westEastBottom0.12" vType="carCustom" speedFactor="1.07" vaporized=""/>
    <tripinfo id="westEastBottom0.13" depart="88.00" departLane="westJunction_0" departPos="5.10" departSpeed="25.72" departDelay="0.66" arrival="127.00" arrivalLane="junctionEast_0" arrivalPos="492.80" arrivalSpeed="27.02" duration="39.00" routeLength="994.90" waitingTime="0.00" waitingCount="0" stopTime="0.00" timeLoss="2.62" rerouteNo="0" devices="tripinfo_westEastBottom0.13 ssm_westEastBottom0.13" vType="carCustom" speedFactor="1.11" vaporized=""/>
    <tripinfo id="westEastBottom0.18" depart="98.00" departLane="westJunction_0" departPos="5.10" departSpeed="21.29" departDelay="0.72" arrival="127.00" arrivalLane="junctionEast_0" arrivalPos="492.80" arrivalSpeed="1.97" duration="29.00" routeLength="994.90" waitingTime="0.00" waitingCount="0" stopTime="0.00" timeLoss="10.88" rerouteNo="0" devices="tripinfo_westEastBottom0.18 ssm_westEastBottom0.18" vType="carCustom" speedFactor="0.88" vaporized="teleport"/>
    <tripinfo id="westEastBottom0.14" depart="90.00" departLane="westJunction_0" departPos="5.10" departSpeed="26.90" departDelay="1.43" arrival="128.00" arrivalLane="junctionEast_1" arrivalPos="492.80" arrivalSpeed="27.71" duration="38.00" routeLength="994.90" waitingTime="0.00" waitingCount="0" stopTime="0.00" timeLoss="1.74" rerouteNo="0" devices="tripinfo_westEastBottom0.14 ssm_westEastBottom0.14" vType="carCustom" speedFactor="0.97" vaporized=""/>
    <tripinfo id="westEastBottom0.15" depart="92.00" departLane="westJunction_0" departPos="5.10" departSpeed="25.26" departDelay="2.92" arrival="131.00" arrivalLane="junctionEast_0" arrivalPos="492.80" arrivalSpeed="26.60" duration="39.00" routeLength="994.90" waitingTime="0.00" waitingCount="0" stopTime="0.00" timeLoss="2.53" rerouteNo="0" devices="tripinfo_westEastBottom0.15 ssm_westEastBottom0.15" vType="carCustom" speedFactor="1.11" vaporized=""/>
    <tripinfo id="westEastTop.15" depart="92.00" departLane="westJunction_1" departPos="5.10" departSpeed="27.67" departDelay="0.93" arrival="131.00" arrivalLane="junctionEast_1" arrivalPos="492.80" arrivalSpeed="26.98" duration="39.00" routeLength="994.90" waitingTime="0.00" waitingCount="0" stopTime="0.00" timeLoss="2.28" rerouteNo="0" devices="tripinfo_westEastTop.15 ssm_westEastTop.15" vType="carCustom" speedFactor="0.77" vaporized=""/>
    <tripinfo id="southNorth.4" depart="93.00" departLane="southJunction_1" departPos="5.10" departSpeed="27.78" departDelay="0.91" arrival="135.00" arrivalLane="junctionNorth_0" arrivalPos="492.80" arrivalSpeed="27.30" duration="42.00" routeLength="995.01" waitingTime="0.00" waitingCount="0" stopTime="0.00" timeLoss="6.10" rerouteNo="0" devices="tripinfo_southNorth.4 ssm_southNorth.4" vType="carCustom" speedFactor="1.01" vaporized=""/>
    <tripinfo id="westEastBottom0.16" depart="94.00" departLane="westJunction_0" departPos="5.10" departSpeed="24.15" departDelay="3.93" arrival="144.00" arrivalLane="junctionEast_0" arrivalPos="492.80" arrivalSpeed="27.24" duration="50.00" routeLength="994.90" waitingTime="5.00" waitingCount="1" stopTime="0.00" timeLoss="13.35" rerouteNo="0" devices="tripinfo_westEastBottom0.16 ssm_westEastBottom0.16" vType="carCustom" speedFactor="1.03" vaporized=""/>
    <tripinfo id="westEastTop.16" depart="94.00" departLane="westJunction_1" departPos="5.10" departSpeed="26.98" departDelay="1.67" arrival="144.00" arrivalLane="junctionEast_1" arrivalPos="492.80" arrivalSpeed="26.51" duration="50.00" routeLength="994.90" waitingTime="5.00" waitingCount="1" stopTime="0.00" timeLoss="13.48" rerouteNo="0" devices="tripinfo_westEastTop.16 ssm_westEastTop.16" vType="carCustom" speedFactor="0.94" vaporized=""/>
    <tripinfo id="westEastBottom0.17" depart="96.00" departLane="westJunction_0" departPos="5.10" departSpeed="23.99" departDelay="1.74" arrival="146.00" arrivalLane="junctionEast_0" arrivalPos="492.80" arrivalSpeed="27.31" duration="50.00" routeLength="994.90" waitingTime="0.00" waitingCount="0" stopTime="0.00" timeLoss="13.86" rerouteNo="0" devices="tripinfo_westEastBottom0.17 ssm_westEastBottom0.17" vType="carCustom" speedFactor="0.96" vaporized=""/>
    <tripinfo id="westEastTop.17" depart="97.00" departLane="westJunction_1" departPos="5.10" departSpeed="26.48" departDelay="0.11" arrival="147.00" arrivalLane="junctionEast_1" arrivalPos="492.80" arrivalSpeed="26.93" duration="50.00" routeLength="994.90" waitingTime="0.00" waitingCount="0" stopTime="0.00" timeLoss="13.33" rerouteNo="0" devices="tripinfo_westEastTop.17 ssm_westEastTop.17" vType="carCustom" speedFactor="0.97" vaporized=""/>
    <tripinfo id="westEastTop.18" depart="106.00" departLane="westJunction_1" departPos="5.10" departSpeed="26.69" departDelay="0.83" arrival="149.00" arrivalLane="junctionEast_1" arrivalPos="492.80" arrivalSpeed="26.60" duration="43.00" routeLength="994.90" waitingTime="0.00" waitingCount="0" stopTime="0.00" timeLoss="6.76" rerouteNo="0" devices="tripinfo_westEastTop.18 ssm_westEastTop.18" vType="carCustom" speedFactor="1.07" vaporized=""/>
    <tripinfo id="southEast.12" depart="97.00" departLane="southJunction_0" departPos="5.10" departSpeed="27.32" departDelay="0.94" arrival="150.00" arrivalLane="junctionEast_0" arrivalPos="492.80" arrivalSpeed="27.05" duration="53.00" routeLength="989.53" waitingTime="5.00" waitingCount="1" stopTime="0.00" timeLoss="15.68" rerouteNo="0" devices="tripinfo_southEast.12 ssm_southEast.12" vType="carCustom" speedFactor="0.88" vaporized=""/>
    <tripinfo id="westEastTop.19" depart="108.00" departLane="westJunction_1" departPos="5.10" departSpeed="27.05" departDelay="2.67" arrival="151.00" arrivalLane="junctionEast_1" arrivalPos="492.80" arrivalSpeed="27.66" duration="43.00" routeLength="994.90" waitingTime="0.00" waitingCount="0" stopTime="0.00" timeLoss="7.03" rerouteNo="0" devices="tripinfo_westEastTop.19 ssm_westEastTop.19" vType="carCustom" speedFactor="1.00" vaporized=""/>
    <tripinfo id="westEastTop.20" depart="110.00" departLane="westJunction_1" departPos="5.10" departSpeed="26.17" departDelay="0.75" arrival="154.00" arrivalLane="junctionEast_1" arrivalPos="492.80" arrivalSpeed="27.42" duration="44.00" routeLength="994.90" waitingTime="0.00" waitingCount="0" stopTime="0.00" timeLoss="7.32" rerouteNo="0" devices="tripinfo_westEastTop.20 ssm_westEastTop.20" vType="carCustom" speedFactor="1.04" vaporized=""/>
    <tripinfo id="southEast.14" depart="124.00" departLane="southJunction_0" departPos="5.10" departSpeed="7.84" departDelay="2.54" arrival="154.00" arrivalLane="junctionEast_0" arrivalPos="492.80" arrivalSpeed="6.42" duration="30.00" routeLength="989.53" waitingTime="0.00" waitingCount="0" stopTime="0.00" timeLoss="10.55" rerouteNo="0" devices="tripinfo_southEast.14 ssm_southEast.14" vType="carCustom" speedFactor="1.03" vaporized="teleport"/>
    <tripinfo id="westEastTop.21" depart="114.00" departLane="westJunction_1" departPos="5.10" departSpeed="24.06" departDelay="0.06" arrival="156.00" arrivalLane="junctionEast_1" arrivalPos="492.80" arrivalSpeed="27.01" duration="42.00" routeLength="994.90" waitingTime="0.00" waitingCount="0" stopTime="0.00" timeLoss="5.70" rerouteNo="0" devices="tripinfo_westEastTop.21 ssm_westEastTop.21" vType="carCustom" speedFactor="0.85" vaporized=""/>
    <tripinfo id="westEastBottom0.19" depart="120.00" departLane="westJunction_0" departPos="5.10" departSpeed="9.13" departDelay="0.77" arrival="164.00" arrivalLane="junctionEast_0" arrivalPos="492.80" arrivalSpeed="26.81" duration="44.00" routeLength="994.90" waitingTime="0.00" waitingCount="0" stopTime="0.00" timeLoss="7.55" rerouteNo="0" devices="tripinfo_westEastBottom0.19 ssm_westEastBottom0.19" vType="carCustom" speedFactor="0.91" vaporized=""/>
    <tripinfo id="westEastTop.22" depart="118.00" departLane="westJunction_1" departPos="5.10" departSpeed="27.03" departDelay="0.60" arrival="167.00" arrivalLane="junctionEast_1" arrivalPos="492.80" arrivalSpeed="26.62" duration="49.00" routeLength="994.90" waitingTime="5.00" waitingCount="1" stopTime="0.00" timeLoss="12.26" rerouteNo="0" devices="tripinfo_westEastTop.22 ssm_westEastTop.22" vType="carCustom" speedFactor="0.85" vaporized=""/>
    <tripinfo id="westEastBottom0.20" depart="122.00" departLane="westJunction_0" departPos="5.10" departSpeed="12.27" departDelay="1.87" arrival="168.00" arrivalLane="junctionEast_0" arrivalPos="492.80" arrivalSpeed="27.66" duration="46.00" routeLength="994.90" waitingTime="0.00" waitingCount="0" stopTime="0.00" timeLoss="10.02" rerouteNo="0" devices="tripinfo_westEastBottom0.20 ssm_westEastBottom0.20" vType="carCustom" speedFactor="0.90" vaporized=""/>