<?xml version="1.0" encoding="UTF-8"?>

<!-- generated on 2025-04-29 07:40:33 by Eclipse SUMO sumo Version 1.20.0
<configuration xmlns:xsi="http://www.w3.org/2001/XMLSchema-instance" xsi:noNamespaceSchemaLocation="http://sumo.dlr.de/xsd/sumoConfiguration.xsd">

    <input>
        <net-file value="nets/2lane_unprotected_right/2lane_unprotected_right.net.xml"/>
        <route-files value="nets/2lane_unprotected_right/2lane_unprotected_right.rou.xml"/>
    </input>

    <output>
        <tripinfo-output value="traces/transs50f0.5_s50_f1_random/0120_tripinfo.xml"/>
        <collision-output value="traces/transs50f0.5_s50_f1_random/0120_collisions.xml"/>
        <statistic-output value="traces/transs50f0.5_s50_f1_random/0120_statistics.xml"/>
    </output>

    <processing>
        <collision.action value="teleport"/>
        <collision.check-junctions value="true"/>
        <time-to-teleport value="-1"/>
        <waiting-time-memory value="1000"/>
        <max-depart-delay value="-1"/>
        <default.speeddev value="0.1"/>
    </processing>

    <report>
        <no-warnings value="true"/>
    </report>

    <ssm_device>
        <device.ssm.probability value="1.0"/>
        <device.ssm.measures value="BR"/>
        <device.ssm.file value="/Users/finn/Code/CausalKnowledgeTransfer-4-SafeRL/traces/transs50f0.5_s50_f1_random/0120_ssm.xml"/>
    </ssm_device>

    <traci_server>
        <remote-port value="63890"/>
    </traci_server>

    <random_number>
        <random value="true"/>
    </random_number>

</configuration>
-->

<tripinfos xmlns:xsi="http://www.w3.org/2001/XMLSchema-instance" xsi:noNamespaceSchemaLocation="http://sumo.dlr.de/xsd/tripinfo_file.xsd">
    <tripinfo id="westEastBottom0.0" depart="2.00" departLane="westJunction_0" departPos="5.10" departSpeed="27.78" departDelay="0.50" arrival="42.00" arrivalLane="junctionEast_0" arrivalPos="492.80" arrivalSpeed="26.87" duration="40.00" routeLength="994.90" waitingTime="0.00" waitingCount="0" stopTime="0.00" timeLoss="3.44" rerouteNo="0" devices="tripinfo_westEastBottom0.0 ssm_westEastBottom0.0" vType="carCustom" speedFactor="0.95" vaporized=""/>
    <tripinfo id="westEastTop.0" depart="3.00" departLane="westJunction_1" departPos="5.10" departSpeed="27.78" departDelay="0.25" arrival="42.00" arrivalLane="junctionEast_1" arrivalPos="492.80" arrivalSpeed="26.87" duration="39.00" routeLength="994.90" waitingTime="0.00" waitingCount="0" stopTime="0.00" timeLoss="2.65" rerouteNo="0" devices="tripinfo_westEastTop.0 ssm_westEastTop.0" vType="carCustom" speedFactor="1.02" vaporized=""/>
    <tripinfo id="southNorth.0" depart="4.00" departLane="southJunction_1" departPos="5.10" departSpeed="27.68" departDelay="0.08" arrival="49.00" arrivalLane="junctionNorth_0" arrivalPos="492.80" arrivalSpeed="26.76" duration="45.00" routeLength="995.01" waitingTime="2.00" waitingCount="1" stopTime="0.00" timeLoss="8.49" rerouteNo="0" devices="tripinfo_southNorth.0 ssm_southNorth.0" vType="carCustom" speedFactor="1.01" vaporized=""/>
    <tripinfo id="southNorth.1" depart="6.00" departLane="southJunction_1" departPos="5.10" departSpeed="26.90" departDelay="1.24" arrival="59.00" arrivalLane="junctionNorth_0" arrivalPos="492.80" arrivalSpeed="26.91" duration="53.00" routeLength="995.01" waitingTime="0.00" waitingCount="0" stopTime="0.00" timeLoss="16.60" rerouteNo="0" devices="tripinfo_southNorth.1 ssm_southNorth.1" vType="carCustom" speedFactor="0.98" vaporized=""/>
    <tripinfo id="southNorth.2" depart="21.00" departLane="southJunction_1" departPos="5.10" departSpeed="17.86" departDelay="0.73" arrival="69.00" arrivalLane="junctionNorth_0" arrivalPos="492.80" arrivalSpeed="26.84" duration="48.00" routeLength="995.01" waitingTime="0.00" waitingCount="0" stopTime="0.00" timeLoss="11.93" rerouteNo="0" devices="tripinfo_southNorth.2 ssm_southNorth.2" vType="carCustom" speedFactor="0.99" vaporized=""/>
    <tripinfo id="westEastBottom0.1" depart="24.00" departLane="westJunction_0" departPos="5.10" departSpeed="27.68" departDelay="0.66" arrival="70.00" arrivalLane="junctionEast_0" arrivalPos="492.80" arrivalSpeed="27.12" duration="46.00" routeLength="994.90" waitingTime="0.00" waitingCount="0" stopTime="0.00" timeLoss="10.17" rerouteNo="0" devices="tripinfo_westEastBottom0.1 ssm_westEastBottom0.1" vType="carCustom" speedFactor="1.14" vaporized=""/>
    <tripinfo id="westEastTop.1" depart="33.00" departLane="westJunction_1" departPos="5.10" departSpeed="27.68" departDelay="0.44" arrival="71.00" arrivalLane="junctionEast_1" arrivalPos="492.80" arrivalSpeed="26.66" duration="38.00" routeLength="994.90" waitingTime="0.00" waitingCount="0" stopTime="0.00" timeLoss="1.93" rerouteNo="0" devices="tripinfo_westEastTop.1 ssm_westEastTop.1" vType="carCustom" speedFactor="1.12" vaporized=""/>
    <tripinfo id="southNorth.3" depart="23.00" departLane="southJunction_1" departPos="5.10" departSpeed="20.30" departDelay="1.61" arrival="79.00" arrivalLane="junctionNorth_0" arrivalPos="492.80" arrivalSpeed="27.27" duration="56.00" routeLength="995.01" waitingTime="0.00" waitingCount="0" stopTime="0.00" timeLoss="19.57" rerouteNo="0" devices="tripinfo_southNorth.3 ssm_southNorth.3" vType="carCustom" speedFactor="0.97" vaporized=""/>
    <tripinfo id="southEast.0" depart="28.00" departLane="southJunction_0" departPos="5.10" departSpeed="27.78" departDelay="0.29" arrival="81.00" arrivalLane="junctionEast_0" arrivalPos="492.80" arrivalSpeed="26.49" duration="53.00" routeLength="989.53" waitingTime="0.00" waitingCount="0" stopTime="0.00" timeLoss="15.77" rerouteNo="0" devices="tripinfo_southEast.0 ssm_southEast.0" vType="carCustom" speedFactor="0.94" vaporized=""/>
    <tripinfo id="westEastBottom0.2" depart="34.00" departLane="westJunction_0" departPos="5.10" departSpeed="26.84" departDelay="0.39" arrival="82.00" arrivalLane="junctionEast_1" arrivalPos="492.80" arrivalSpeed="27.23" duration="48.00" routeLength="994.90" waitingTime="0.00" waitingCount="0" stopTime="0.00" timeLoss="11.63" rerouteNo="0" devices="tripinfo_westEastBottom0.2 ssm_westEastBottom0.2" vType="carCustom" speedFactor="1.08" vaporized=""/>
    <tripinfo id="southEast.1" depart="30.00" departLane="southJunction_0" departPos="5.10" departSpeed="26.89" departDelay="2.22" arrival="92.00" arrivalLane="junctionEast_0" arrivalPos="492.80" arrivalSpeed="26.68" duration="62.00" routeLength="989.53" waitingTime="0.00" waitingCount="0" stopTime="0.00" timeLoss="24.13" rerouteNo="0" devices="tripinfo_southEast.1 ssm_southEast.1" vType="carCustom" speedFactor="1.01" vaporized=""/>
    <tripinfo id="westEastTop.2" depart="41.00" departLane="westJunction_1" departPos="5.10" departSpeed="26.89" departDelay="0.80" arrival="92.00" arrivalLane="junctionEast_1" arrivalPos="492.80" arrivalSpeed="27.63" duration="51.00" routeLength="994.90" waitingTime="0.00" waitingCount="0" stopTime="0.00" timeLoss="14.81" rerouteNo="0" devices="tripinfo_westEastTop.2 ssm_westEastTop.2" vType="carCustom" speedFactor="1.08" vaporized=""/>
    <tripinfo id="southNorth.4" depart="60.00" departLane="southJunction_1" departPos="5.10" departSpeed="21.68" departDelay="0.74" arrival="102.00" arrivalLane="junctionNorth_0" arrivalPos="492.80" arrivalSpeed="27.44" duration="42.00" routeLength="995.01" waitingTime="0.00" waitingCount="0" stopTime="0.00" timeLoss="5.79" rerouteNo="0" devices="tripinfo_southNorth.4 ssm_southNorth.4" vType="carCustom" speedFactor="0.89" vaporized=""/>
    <tripinfo id="southEast.2" depart="42.00" departLane="southJunction_0" departPos="5.10" departSpeed="13.03" departDelay="0.37" arrival="103.00" arrivalLane="junctionEast_0" arrivalPos="492.80" arrivalSpeed="27.11" duration="61.00" routeLength="989.53" waitingTime="0.00" waitingCount="0" stopTime="0.00" timeLoss="23.04" rerouteNo="0" devices="tripinfo_southEast.2 ssm_southEast.2" vType="carCustom" speedFactor="0.93" vaporized=""/>
    <tripinfo id="westEastTop.3" depart="53.00" departLane="westJunction_1" departPos="5.10" departSpeed="14.44" departDelay="0.11" arrival="109.00" arrivalLane="junctionEast_1" arrivalPos="492.80" arrivalSpeed="27.06" duration="56.00" routeLength="994.90" waitingTime="4.00" waitingCount="1" stopTime="0.00" timeLoss="19.72" rerouteNo="0" devices="tripinfo_westEastTop.3 ssm_westEastTop.3" vType="carCustom" speedFactor="0.95" vaporized=""/>
    <tripinfo id="southEast.4" depart="49.00" departLane="southJunction_0" departPos="5.10" departSpeed="11.48" departDelay="0.56" arrival="112.00" arrivalLane="junctionEast_0" arrivalPos="492.80" arrivalSpeed="27.30" duration="63.00" routeLength="989.53" waitingTime="0.00" waitingCount="0" stopTime="0.00" timeLoss="25.11" rerouteNo="0" devices="tripinfo_southEast.4 ssm_southEast.4" vType="carCustom" speedFactor="1.00" vaporized=""/>
    <tripinfo id="southNorth.5" depart="66.00" departLane="southJunction_1" departPos="5.10" departSpeed="17.42" departDelay="0.05" arrival="114.00" arrivalLane="junctionNorth_0" arrivalPos="492.80" arrivalSpeed="26.66" duration="48.00" routeLength="995.01" waitingTime="0.00" waitingCount="0" stopTime="0.00" timeLoss="12.09" rerouteNo="0" devices="tripinfo_southNorth.5 ssm_southNorth.5" vType="carCustom" speedFactor="0.95" vaporized=""/>
    <tripinfo id="southEast.3" depart="45.00" departLane="southJunction_0" departPos="5.10" departSpeed="17.46" departDelay="0.47" arrival="120.00" arrivalLane="junctionEast_0" arrivalPos="492.80" arrivalSpeed="26.59" duration="75.00" routeLength="989.53" waitingTime="0.00" waitingCount="0" stopTime="0.00" timeLoss="38.72" rerouteNo="0" devices="tripinfo_southEast.3 ssm_southEast.3" vType="carCustom" speedFactor="1.05" vaporized=""/>
    <tripinfo id="westEastTop.4" depart="63.00" departLane="westJunction_1" departPos="5.10" departSpeed="17.55" departDelay="0.68" arrival="120.00" arrivalLane="junctionEast_1" arrivalPos="492.80" arrivalSpeed="26.89" duration="57.00" routeLength="994.90" waitingTime="0.00" waitingCount="0" stopTime="0.00" timeLoss="20.99" rerouteNo="0" devices="tripinfo_westEastTop.4 ssm_westEastTop.4" vType="carCustom" speedFactor="1.02" vaporized=""/>
    <tripinfo id="southNorth.6" depart="68.00" departLane="southJunction_1" departPos="5.10" departSpeed="14.99" departDelay="0.45" arrival="125.00" arrivalLane="junctionNorth_0" arrivalPos="492.80" arrivalSpeed="26.88" duration="57.00" routeLength="995.01" waitingTime="0.00" waitingCount="0" stopTime="0.00" timeLoss="20.96" rerouteNo="0" devices="tripinfo_southNorth.6 ssm_southNorth.6" vType="carCustom" speedFactor="0.95" vaporized=""/>
    <tripinfo id="westEastBottom0.3" depart="70.00" departLane="westJunction_0" departPos="5.10" departSpeed="27.78" departDelay="0.62" arrival="128.00" arrivalLane="junctionEast_0" arrivalPos="492.80" arrivalSpeed="26.76" duration="58.00" routeLength="994.90" waitingTime="0.00" waitingCount="0" stopTime="0.00" timeLoss="21.97" rerouteNo="0" devices="tripinfo_westEastBottom0.3 ssm_westEastBottom0.3" vType="carCustom" speedFactor="0.96" vaporized=""/>
    <tripinfo id="westEastTop.5" depart="65.00" departLane="westJunction_1" departPos="5.10" departSpeed="16.22" departDelay="1.64" arrival="131.00" arrivalLane="junctionEast_1" arrivalPos="492.80" arrivalSpeed="27.42" duration="66.00" routeLength="994.90" waitingTime="0.00" waitingCount="0" stopTime="0.00" timeLoss="29.48" rerouteNo="0" devices="tripinfo_westEastTop.5 ssm_westEastTop.5" vType="carCustom" speedFactor="1.11" vaporized=""/>
    <tripinfo id="southNorth.7" depart="73.00" departLane="southJunction_1" departPos="5.10" departSpeed="8.66" departDelay="0.81" arrival="135.00" arrivalLane="junctionNorth_0" arrivalPos="492.80" arrivalSpeed="27.19" duration="62.00" routeLength="995.01" waitingTime="0.00" waitingCount="0" stopTime="0.00" timeLoss="26.14" rerouteNo="0" devices="tripinfo_southNorth.7 ssm_southNorth.7" vType="carCustom" speedFactor="1.03" vaporized=""/>
    <tripinfo id="southEast.5" depart="59.00" departLane="southJunction_0" departPos="5.10" departSpeed="12.39" departDelay="0.36" arrival="136.00" arrivalLane="junctionEast_0" arrivalPos="492.80" arrivalSpeed="26.81" duration="77.00" routeLength="989.53" waitingTime="0.00" waitingCount="0" stopTime="0.00" timeLoss="39.26" rerouteNo="0" devices="tripinfo_southEast.5 ssm_southEast.5" vType="carCustom" speedFactor="1.00" vaporized=""/>
    <tripinfo id="westEastBottom0.4" depart="81.00" departLane="westJunction_0" departPos="5.10" departSpeed="19.26" departDelay="0.26" arrival="139.00" arrivalLane="junctionEast_1" arrivalPos="492.80" arrivalSpeed="26.95" duration="58.00" routeLength="994.90" waitingTime="0.00" waitingCount="0" stopTime="0.00" timeLoss="21.96" rerouteNo="0" devices="tripinfo_westEastBottom0.4 ssm_westEastBottom0.4" vType="carCustom" speedFactor="1.12" vaporized=""/>
    <tripinfo id="southEast.6" depart="62.00" departLane="southJunction_0" departPos="5.10" departSpeed="15.36" departDelay="0.45" arrival="143.00" arrivalLane="junctionEast_0" arrivalPos="492.80" arrivalSpeed="26.92" duration="81.00" routeLength="989.53" waitingTime="0.00" waitingCount="0" stopTime="0.00" timeLoss="44.29" rerouteNo="0" devices="tripinfo_southEast.6 ssm_southEast.6" vType="carCustom" speedFactor="1.06" vaporized=""/>
    <tripinfo id="southNorth.8" depart="75.00" departLane="southJunction_1" departPos="5.10" departSpeed="7.99" departDelay="0.34" arrival="146.00" arrivalLane="junctionNorth_0" arrivalPos="492.80" arrivalSpeed="26.60" duration="71.00" routeLength="995.01" waitingTime="0.00" waitingCount="0" stopTime="0.00" timeLoss="34.73" rerouteNo="0" devices="tripinfo_southNorth.8 ssm_southNorth.8" vType="carCustom" speedFactor="0.92" vaporized=""/>
    <tripinfo id="westEastTop.6" depart="67.00" departLane="westJunction_1" departPos="5.10" departSpeed="12.99" departDelay="1.15" arrival="147.00" arrivalLane="junctionEast_1" arrivalPos="492.80" arrivalSpeed="26.52" duration="80.00" routeLength="994.90" waitingTime="0.00" waitingCount="0" stopTime="0.00" timeLoss="43.79" rerouteNo="0" devices="tripinfo_westEastTop.6 ssm_westEastTop.6" vType="carCustom" speedFactor="1.06" vaporized=""/>
    <tripinfo id="southEast.7" depart="79.00" departLane="southJunction_0" departPos="5.10" departSpeed="11.61" departDelay="0.50" arrival="151.00" arrivalLane="junctionEast_0" arrivalPos="492.80" arrivalSpeed="27.45" duration="72.00" routeLength="989.53" waitingTime="0.00" waitingCount="0" stopTime="0.00" timeLoss="34.83" rerouteNo="0" devices="tripinfo_southEast.7 ssm_southEast.7" vType="carCustom" speedFactor="1.03" vaporized=""/>
    <tripinfo id="westEastBottom0.5" depart="91.00" departLane="westJunction_0" departPos="5.10" departSpeed="16.19" departDelay="0.83" arrival="155.00" arrivalLane="junctionEast_1" arrivalPos="492.80" arrivalSpeed="26.49" duration="64.00" routeLength="994.90" waitingTime="0.00" waitingCount="0" stopTime="0.00" timeLoss="27.35" rerouteNo="0" devices="tripinfo_westEastBottom0.5 ssm_westEastBottom0.5" vType="carCustom" speedFactor="0.91" vaporized=""/>
    <tripinfo id="southNorth.9" depart="78.00" departLane="southJunction_1" departPos="5.10" departSpeed="4.67" departDelay="2.88" arrival="157.00" arrivalLane="junctionNorth_0" arrivalPos="492.80" arrivalSpeed="26.89" duration="79.00" routeLength="995.01" waitingTime="0.00" waitingCount="0" stopTime="0.00" timeLoss="42.35" rerouteNo="0" devices="tripinfo_southNorth.9 ssm_southNorth.9" vType="carCustom" speedFactor="1.07" vaporized=""/>
    <tripinfo id="southEast.8" depart="81.00" departLane="southJunction_0" departPos="5.10" departSpeed="14.50" departDelay="1.46" arrival="158.00" arrivalLane="junctionEast_0" arrivalPos="492.80" arrivalSpeed="27.49" duration="77.00" routeLength="989.53" waitingTime="0.00" waitingCount="0" stopTime="0.00" timeLoss="39.89" rerouteNo="0" devices="tripinfo_southEast.8 ssm_southEast.8" vType="carCustom" speedFactor="1.03" vaporized=""/>
    <tripinfo id="westEastTop.7" depart="69.00" departLane="westJunction_1" departPos="5.10" departSpeed="9.75" departDelay="1.28" arrival="162.00" arrivalLane="junctionEast_1" arrivalPos="492.80" arrivalSpeed="27.01" duration="93.00" routeLength="994.90" waitingTime="0.00" waitingCount="0" stopTime="0.00" timeLoss="57.05" rerouteNo="0" devices="tripinfo_westEastTop.7 ssm_westEastTop.7" vType="carCustom" speedFactor="1.05" vaporized=""/>
    <tripinfo id="westEastBottom0.6" depart="93.00" departLane="westJunction_0" departPos="5.10" departSpeed="16.73" departDelay="0.97" arrival="166.00" arrivalLane="junctionEast_0" arrivalPos="492.80" arrivalSpeed="27.25" duration="73.00" routeLength="994.90" waitingTime="0.00" waitingCount="0" stopTime="0.00" timeLoss="36.41" rerouteNo="0" devices="tripinfo_westEastBottom0.6 ssm_westEastBottom0.6" vType="carCustom" speedFactor="0.93" vaporized=""/>
    <tripinfo id="westEastTop.8" depart="75.00" departLane="westJunction_1" departPos="5.10" departSpeed="5.13" departDelay="0.92" arrival="170.00" arrivalLane="junctionEast_1" arrivalPos="492.80" arrivalSpeed="26.85" duration="95.00" routeLength="994.90" waitingTime="1.00" waitingCount="1" stopTime="0.00" timeLoss="58.74" rerouteNo="0" devices="tripinfo_westEastTop.8 ssm_westEastTop.8" vType="carCustom" speedFactor="1.06" vaporized=""/>
    <tripinfo id="southEast.9" depart="83.00" departLane="southJunction_0" departPos="5.10" departSpeed="11.27" departDelay="3.38" arrival="173.00" arrivalLane="junctionEast_0" arrivalPos="492.80" arrivalSpeed="26.96" duration="90.00" routeLength="989.53" waitingTime="0.00" waitingCount="0" stopTime="0.00" timeLoss="52.57" rerouteNo="0" devices="tripinfo_southEast.9 ssm_southEast.9" vType="carCustom" speedFactor="0.76" vaporized=""/>
    <tripinfo id="westEastTop.9" depart="79.00" departLane="westJunction_1" departPos="5.10" departSpeed="5.30" departDelay="0.26" arrival="178.00" arrivalLane="junctionEast_1" arrivalPos="492.80" arrivalSpeed="26.93" duration="99.00" routeLength="994.90" waitingTime="0.00" waitingCount="0" stopTime="0.00" timeLoss="62.29" rerouteNo="0" devices="tripinfo_westEastTop.9 ssm_westEastTop.9" vType="carCustom" speedFactor="1.02" vaporized=""/>
    <tripinfo id="southNorth.10" depart="83.00" departLane="southJunction_1" departPos="5.10" departSpeed="5.24" departDelay="0.83" arrival="178.00" arrivalLane="junctionNorth_0" arrivalPos="492.80" arrivalSpeed="26.50" duration="95.00" routeLength="995.01" waitingTime="10.00" waitingCount="1" stopTime="0.00" timeLoss="59.11" rerouteNo="0" devices="tripinfo_southNorth.10 ssm_southNorth.10" vType="carCustom" speedFactor="1.09" vaporized=""/>
    <tripinfo id="westEastBottom0.7" depart="95.00" departLane="westJunction_0" departPos="5.10" departSpeed="13.49" departDelay="0.56" arrival="180.00" arrivalLane="junctionEast_0" arrivalPos="492.80" arrivalSpeed="27.62" duration="85.00" routeLength="994.90" waitingTime="0.00" waitingCount="0" stopTime="0.00" timeLoss="48.74" rerouteNo="0" devices="tripinfo_westEastBottom0.7 ssm_westEastBottom0.7" vType="carCustom" speedFactor="0.93" vaporized=""/>
    <tripinfo id="westEastTop.10" depart="85.00" departLane="westJunction_1" departPos="5.10" departSpeed="5.60" departDelay="0.52" arrival="185.00" arrivalLane="junctionEast_1" arrivalPos="492.80" arrivalSpeed="27.48" duration="100.00" routeLength="994.90" waitingTime="0.00" waitingCount="0" stopTime="0.00" timeLoss="63.54" rerouteNo="0" devices="tripinfo_westEastTop.10 ssm_westEastTop.10" vType="carCustom" speedFactor="1.01" vaporized=""/>
    <tripinfo id="southEast.10" depart="85.00" departLane="southJunction_0" departPos="5.10" departSpeed="8.03" departDelay="4.55" arrival="187.00" arrivalLane="junctionEast_0" arrivalPos="492.80" arrivalSpeed="27.36" duration="102.00" routeLength="989.53" waitingTime="0.00" waitingCount="0" stopTime="0.00" timeLoss="64.71" rerouteNo="0" devices="tripinfo_southEast.10 ssm_southEast.10" vType="carCustom" speedFactor="1.00" vaporized=""/>
    <tripinfo id="southNorth.11" depart="89.00" departLane="southJunction_1" departPos="5.10" departSpeed="4.64" departDelay="0.13" arrival="187.00" arrivalLane="junctionNorth_0" arrivalPos="492.80" arrivalSpeed="26.94" duration="98.00" routeLength="995.01" waitingTime="1.00" waitingCount="1" stopTime="0.00" timeLoss="61.43" rerouteNo="0" devices="tripinfo_southNorth.11 ssm_southNorth.11" vType="carCustom" speedFactor="0.94" vaporized=""/>
    <tripinfo id="southEast.11" depart="88.00" departLane="southJunction_0" departPos="5.10" departSpeed="3.99" departDelay="5.88" arrival="192.00" arrivalLane="junctionEast_1" arrivalPos="492.80" arrivalSpeed="26.76" duration="104.00" routeLength="989.53" waitingTime="0.00" waitingCount="0" stopTime="0.00" timeLoss="66.28" rerouteNo="0" devices="tripinfo_southEast.11 ssm_southEast.11" vType="carCustom" speedFactor="0.94" vaporized=""/>
    <tripinfo id="westEastBottom0.8" depart="102.00" departLane="westJunction_0" departPos="5.10" departSpeed="6.75" departDelay="0.80" arrival="194.00" arrivalLane="junctionEast_0" arrivalPos="492.80" arrivalSpeed="26.81" duration="92.00" routeLength="994.90" waitingTime="0.00" waitingCount="0" stopTime="0.00" timeLoss="55.31" rerouteNo="0" devices="tripinfo_westEastBottom0.8 ssm_westEastBottom0.8" vType="carCustom" speedFactor="0.87" vaporized=""/>
    <tripinfo id="southEast.16" depart="113.00" departLane="southJunction_0" departPos="5.10" departSpeed="5.01" departDelay="0.40" arrival="197.00" arrivalLane="junctionEast_0" arrivalPos="492.80" arrivalSpeed="5.47" duration="84.00" routeLength="989.53" waitingTime="3.00" waitingCount="1" stopTime="0.00" timeLoss="65.60" rerouteNo="0" devices="tripinfo_southEast.16 ssm_southEast.16" vType="carCustom" speedFactor="1.06" vaporized="teleport"/>
    <tripinfo id="westEastTop.11" depart="88.00" departLane="westJunction_1" departPos="5.10" departSpeed="5.08" departDelay="2.71" arrival="199.00" arrivalLane="junctionEast_1" arrivalPos="492.80" arrivalSpeed="26.69" duration="111.00" routeLength="994.90" waitingTime="0.00" waitingCount="0" stopTime="0.00" timeLoss="74.66" rerouteNo="0" devices="tripinfo_westEastTop.11 ssm_westEastTop.11" vType="carCustom" speedFactor="0.87" vaporized=""/>
    <tripinfo id="southNorth.12" depart="101.00" departLane="southJunction_1" departPos="5.10" departSpeed="4.72" departDelay="0.15" arrival="200.00" arrivalLane="junctionNorth_0" arrivalPos="492.80" arrivalSpeed="27.72" duration="99.00" routeLength="995.01" waitingTime="9.00" waitingCount="1" stopTime="0.00" timeLoss="62.27" rerouteNo="0" devices="tripinfo_southNorth.12 ssm_southNorth.12" vType="carCustom" speedFactor="0.98" vaporized=""/>
    <tripinfo id="westEastBottom0.9" depart="104.00" departLane="westJunction_0" departPos="5.10" departSpeed="7.57" departDelay="0.97" arrival="200.00" arrivalLane="junctionEast_0" arrivalPos="492.80" arrivalSpeed="26.81" duration="96.00" routeLength="994.90" waitingTime="0.00" waitingCount="0" stopTime="0.00" timeLoss="60.04" rerouteNo="0" devices="tripinfo_westEastBottom0.9 ssm_westEastBottom0.9" vType="carCustom" speedFactor="0.83" vaporized=""/>
    <tripinfo id="westEastTop.12" depart="96.00" departLane="westJunction_1" departPos="5.10" departSpeed="4.81" departDelay="0.30" arrival="206.00" arrivalLane="junctionEast_1" arrivalPos="492.80" arrivalSpeed="26.66" duration="110.00" routeLength="994.90" waitingTime="0.00" waitingCount="0" stopTime="0.00" timeLoss="73.42" rerouteNo="0" devices="tripinfo_westEastTop.12 ssm_westEastTop.12" vType="carCustom" speedFactor="0.90" vaporized=""/>
    <tripinfo id="southEast.12" depart="92.00" departLane="southJunction_0" departPos="5.10" departSpeed="3.48" departDelay="7.33" arrival="207.00" arrivalLane="junctionEast_0" arrivalPos="492.80" arrivalSpeed="27.37" duration="115.00" routeLength="989.53" waitingTime="2.00" waitingCount="1" stopTime="0.00" timeLoss="78.38" rerouteNo="0" devices="tripinfo_southEast.12 ssm_southEast.12" vType="carCustom" speedFactor="1.03" vaporized=""/>
    <tripinfo id="southNorth.13" depart="105.00" departLane="southJunction_1" departPos="5.10" departSpeed="5.00" departDelay="0.17" arrival="211.00" arrivalLane="junctionNorth_0" arrivalPos="492.80" arrivalSpeed="26.95" duration="106.00" routeLength="995.01" waitingTime="6.00" waitingCount="2" stopTime="0.00" timeLoss="69.39" rerouteNo="0" devices="tripinfo_southNorth.13 ssm_southNorth.13" vType="carCustom" speedFactor="1.11" vaporized=""/>
    <tripinfo id="westEastTop.13" depart="101.00" departLane="westJunction_1" departPos="5.10" departSpeed="4.95" departDelay="0.57" arrival="213.00" arrivalLane="junctionEast_1" arrivalPos="492.80" arrivalSpeed="27.41" duration="112.00" routeLength="994.90" waitingTime="0.00" waitingCount="0" stopTime="0.00" timeLoss="75.40" rerouteNo="0" devices="tripinfo_westEastTop.13 ssm_westEastTop.13" vType="carCustom" speedFactor="0.79" vaporized=""/>
    <tripinfo id="westEastBottom0.15" depart="145.00" departLane="westJunction_0" departPos="5.10" departSpeed="5.90" departDelay="0.94" arrival="213.00" arrivalLane="junctionEast_0" arrivalPos="492.80" arrivalSpeed="4.85" duration="68.00" routeLength="994.90" waitingTime="0.00" waitingCount="0" stopTime="0.00" timeLoss="49.91" rerouteNo="0" devices="tripinfo_westEastBottom0.15 ssm_westEastBottom0.15" vType="carCustom" speedFactor="0.97" vaporized="teleport"/>
    <tripinfo id="westEastBottom0.10" depart="118.00" departLane="westJunction_0" departPos="5.10" departSpeed="7.92" departDelay="0.02" arrival="214.00" arrivalLane="junctionEast_0" arrivalPos="492.80" arrivalSpeed="26.69" duration="96.00" routeLength="994.90" waitingTime="0.00" waitingCount="0" stopTime="0.00" timeLoss="59.54" rerouteNo="0" devices="tripinfo_westEastBottom0.10 ssm_westEastBottom0.10" vType="carCustom" speedFactor="1.00" vaporized=""/>
    <tripinfo id="westEastTop.14" depart="105.00" departLane="westJunction_1" departPos="5.10" departSpeed="5.19" departDelay="0.65" arrival="220.00" arrivalLane="junctionEast_1" arrivalPos="492.80" arrivalSpeed="27.10" duration="115.00" routeLength="994.90" waitingTime="0.00" waitingCount="0" stopTime="0.00" timeLoss="78.33" rerouteNo="0" devices="tripinfo_westEastTop.14 ssm_westEastTop.14" vType="carCustom" speedFactor="1.01" vaporized=""/>
    <tripinfo id="southEast.13" depart="96.00" departLane="southJunction_0" departPos="5.10" departSpeed="4.07" departDelay="9.82" arrival="221.00" arrivalLane="junctionEast_0" arrivalPos="492.80" arrivalSpeed="26.56" duration="125.00" routeLength="989.53" waitingTime="2.00" waitingCount="1" stopTime="0.00" timeLoss="87.81" rerouteNo="0" devices="tripinfo_southEast.13 ssm_southEast.13" vType="carCustom" speedFactor="1.01" vaporized=""/>
    <tripinfo id="southNorth.14" depart="139.00" departLane="southJunction_1" departPos="5.10" departSpeed="6.88" departDelay="0.88" arrival="224.00" arrivalLane="junctionNorth_0" arrivalPos="492.80" arrivalSpeed="26.69" duration="85.00" routeLength="995.01" waitingTime="9.00" waitingCount="1" stopTime="0.00" timeLoss="48.64" rerouteNo="0" devices="tripinfo_southNorth.14 ssm_southNorth.14" vType="carCustom" speedFactor="0.98" vaporized=""/>
    <tripinfo id="southEast.14" depart="99.00" departLane="southJunction_0" departPos="5.10" departSpeed="4.78" departDelay="0.02" arrival="226.00" arrivalLane="junctionEast_1" arrivalPos="492.80" arrivalSpeed="27.02" duration="127.00" routeLength="989.53" waitingTime="4.00" waitingCount="1" stopTime="0.00" timeLoss="90.24" rerouteNo="0" devices="tripinfo_southEast.14 ssm_southEast.14" vType="carCustom" speedFactor="0.98" vaporized=""/>
    <tripinfo id="westEastBottom0.11" depart="120.00" departLane="westJunction_0" departPos="5.10" departSpeed="9.97" departDelay="1.92" arrival="227.00" arrivalLane="junctionEast_0" arrivalPos="492.80" arrivalSpeed="27.18" duration="107.00" routeLength="994.90" waitingTime="2.00" waitingCount="1" stopTime="0.00" timeLoss="70.96" rerouteNo="0" devices="tripinfo_westEastBottom0.11 ssm_westEastBottom0.11" vType="carCustom" speedFactor="1.00" vaporized=""/>
    <tripinfo id="southNorth.15" depart="141.00" departLane="southJunction_1" departPos="5.10" departSpeed="10.97" departDelay="1.90" arrival="232.00" arrivalLane="junctionNorth_0" arrivalPos="492.80" arrivalSpeed="27.04" duration="91.00" routeLength="995.01" waitingTime="2.00" waitingCount="1" stopTime="0.00" timeLoss="55.09" rerouteNo="0" devices="tripinfo_southNorth.15 ssm_southNorth.15" vType="carCustom" speedFactor="1.06" vaporized=""/>
    <tripinfo id="westEastTop.15" depart="109.00" departLane="westJunction_1" departPos="5.10" departSpeed="3.96" departDelay="0.69" arrival="233.00" arrivalLane="junctionEast_1" arrivalPos="492.80" arrivalSpeed="27.72" duration="124.00" routeLength="994.90" waitingTime="1.00" waitingCount="1" stopTime="0.00" timeLoss="87.85" rerouteNo="0" devices="tripinfo_westEastTop.15 ssm_westEastTop.15" vType="carCustom" speedFactor="1.10" vaporized=""/>
    <tripinfo id="westEastBottom0.12" depart="125.00" departLane="westJunction_0" departPos="5.10" departSpeed="5.91" departDelay="0.74" arrival="234.00" arrivalLane="junctionEast_0" arrivalPos="492.80" arrivalSpeed="27.42" duration="109.00" routeLength="994.90" waitingTime="1.00" waitingCount="1" stopTime="0.00" timeLoss="72.46" rerouteNo="0" devices="tripinfo_westEastBottom0.12 ssm_westEastBottom0.12" vType="carCustom" speedFactor="0.84" vaporized=""/>
    <tripinfo id="westEastTop.16" depart="113.00" departLane="westJunction_1" departPos="5.10" departSpeed="3.94" departDelay="2.20" arrival="240.00" arrivalLane="junctionEast_1" arrivalPos="492.80" arrivalSpeed="27.23" duration="127.00" routeLength="994.90" waitingTime="0.00" waitingCount="0" stopTime="0.00" timeLoss="90.74" rerouteNo="0" devices="tripinfo_westEastTop.16 ssm_westEastTop.16" vType="carCustom" speedFactor="0.97" vaporized=""/>