<?xml version="1.0" encoding="UTF-8"?>

<!-- generated on 2025-04-29 07:50:18 by Eclipse SUMO sumo Version 1.20.0
<configuration xmlns:xsi="http://www.w3.org/2001/XMLSchema-instance" xsi:noNamespaceSchemaLocation="http://sumo.dlr.de/xsd/sumoConfiguration.xsd">

    <input>
        <net-file value="nets/2lane_unprotected_right/2lane_unprotected_right.net.xml"/>
        <route-files value="nets/2lane_unprotected_right/2lane_unprotected_right.rou.xml"/>
    </input>

    <output>
        <tripinfo-output value="traces/transs50f0.5_s50_f1_random/0128_tripinfo.xml"/>
        <collision-output value="traces/transs50f0.5_s50_f1_random/0128_collisions.xml"/>
        <statistic-output value="traces/transs50f0.5_s50_f1_random/0128_statistics.xml"/>
    </output>

    <processing>
        <collision.action value="teleport"/>
        <collision.check-junctions value="true"/>
        <time-to-teleport value="-1"/>
        <waiting-time-memory value="1000"/>
        <max-depart-delay value="-1"/>
        <default.speeddev value="0.1"/>
    </processing>

    <report>
        <no-warnings value="true"/>
    </report>

    <ssm_device>
        <device.ssm.probability value="1.0"/>
        <device.ssm.measures value="BR"/>
        <device.ssm.file value="/Users/finn/Code/CausalKnowledgeTransfer-4-SafeRL/traces/transs50f0.5_s50_f1_random/0128_ssm.xml"/>
    </ssm_device>

    <traci_server>
        <remote-port value="63987"/>
    </traci_server>

    <random_number>
        <random value="true"/>
    </random_number>

</configuration>
-->

<tripinfos xmlns:xsi="http://www.w3.org/2001/XMLSchema-instance" xsi:noNamespaceSchemaLocation="http://sumo.dlr.de/xsd/tripinfo_file.xsd">
    <tripinfo id="westEastTop.0" depart="2.00" departLane="westJunction_1" departPos="5.10" departSpeed="8.33" departDelay="0.04" arrival="132.00" arrivalLane="junctionEast_0" arrivalPos="492.80" arrivalSpeed="7.37" duration="130.00" routeLength="994.90" waitingTime="0.00" waitingCount="0" stopTime="0.00" timeLoss="9.84" rerouteNo="0" devices="tripinfo_westEastTop.0 ssm_westEastTop.0" vType="carCustom" speedFactor="1.02" vaporized=""/>
    <tripinfo id="southNorth.0" depart="2.00" departLane="southJunction_1" departPos="5.10" departSpeed="8.33" departDelay="0.69" arrival="135.00" arrivalLane="junctionNorth_0" arrivalPos="492.80" arrivalSpeed="7.04" duration="133.00" routeLength="995.01" waitingTime="0.00" waitingCount="0" stopTime="0.00" timeLoss="13.35" rerouteNo="0" devices="tripinfo_southNorth.0 ssm_southNorth.0" vType="carCustom" speedFactor="1.02" vaporized=""/>
    <tripinfo id="westEastTop.1" depart="8.00" departLane="westJunction_1" departPos="5.10" departSpeed="7.68" departDelay="0.89" arrival="142.00" arrivalLane="junctionEast_1" arrivalPos="492.80" arrivalSpeed="7.62" duration="134.00" routeLength="994.90" waitingTime="0.00" waitingCount="0" stopTime="0.00" timeLoss="14.29" rerouteNo="0" devices="tripinfo_westEastTop.1 ssm_westEastTop.1" vType="carCustom" speedFactor="0.94" vaporized=""/>
    <tripinfo id="southEast.0" depart="3.00" departLane="southJunction_0" departPos="5.10" departSpeed="8.33" departDelay="0.86" arrival="143.00" arrivalLane="junctionEast_0" arrivalPos="492.80" arrivalSpeed="7.44" duration="140.00" routeLength="989.53" waitingTime="0.00" waitingCount="0" stopTime="0.00" timeLoss="20.48" rerouteNo="0" devices="tripinfo_southEast.0 ssm_southEast.0" vType="carCustom" speedFactor="1.29" vaporized=""/>
    <tripinfo id="southNorth.1" depart="9.00" departLane="southJunction_1" departPos="5.10" departSpeed="7.87" departDelay="0.74" arrival="153.00" arrivalLane="junctionNorth_0" arrivalPos="492.80" arrivalSpeed="7.50" duration="144.00" routeLength="995.01" waitingTime="3.00" waitingCount="1" stopTime="0.00" timeLoss="23.79" rerouteNo="0" devices="tripinfo_southNorth.1 ssm_southNorth.1" vType="carCustom" speedFactor="0.82" vaporized=""/>
    <tripinfo id="southEast.1" depart="8.00" departLane="southJunction_0" departPos="5.10" departSpeed="7.81" departDelay="0.34" arrival="154.00" arrivalLane="junctionEast_0" arrivalPos="492.80" arrivalSpeed="7.81" duration="146.00" routeLength="989.53" waitingTime="0.00" waitingCount="0" stopTime="0.00" timeLoss="25.75" rerouteNo="0" devices="tripinfo_southEast.1 ssm_southEast.1" vType="carCustom" speedFactor="0.81" vaporized=""/>
    <tripinfo id="westEastTop.2" depart="11.00" departLane="westJunction_1" departPos="5.10" departSpeed="6.08" departDelay="3.42" arrival="164.00" arrivalLane="junctionEast_0" arrivalPos="492.80" arrivalSpeed="7.31" duration="153.00" routeLength="994.90" waitingTime="3.00" waitingCount="1" stopTime="0.00" timeLoss="33.24" rerouteNo="0" devices="tripinfo_westEastTop.2 ssm_westEastTop.2" vType="carCustom" speedFactor="1.11" vaporized=""/>
    <tripinfo id="westEastTop.3" depart="14.00" departLane="westJunction_1" departPos="5.10" departSpeed="3.64" departDelay="4.00" arrival="166.00" arrivalLane="junctionEast_1" arrivalPos="492.80" arrivalSpeed="7.81" duration="152.00" routeLength="994.90" waitingTime="0.00" waitingCount="0" stopTime="0.00" timeLoss="31.86" rerouteNo="0" devices="tripinfo_westEastTop.3 ssm_westEastTop.3" vType="carCustom" speedFactor="1.10" vaporized=""/>
    <tripinfo id="westEastBottom0.0" depart="27.00" departLane="westJunction_0" departPos="5.10" departSpeed="8.33" departDelay="0.23" arrival="175.00" arrivalLane="junctionEast_0" arrivalPos="492.80" arrivalSpeed="7.51" duration="148.00" routeLength="994.90" waitingTime="0.00" waitingCount="0" stopTime="0.00" timeLoss="28.12" rerouteNo="0" devices="tripinfo_westEastBottom0.0 ssm_westEastBottom0.0" vType="carCustom" speedFactor="0.94" vaporized=""/>
    <tripinfo id="southEast.7" depart="103.00" departLane="southJunction_0" departPos="5.10" departSpeed="7.17" departDelay="0.09" arrival="176.00" arrivalLane="junctionEast_0" arrivalPos="492.80" arrivalSpeed="2.34" duration="73.00" routeLength="989.53" waitingTime="0.00" waitingCount="0" stopTime="0.00" timeLoss="13.14" rerouteNo="0" devices="tripinfo_southEast.7 ssm_southEast.7" vType="carCustom" speedFactor="1.18" vaporized="teleport"/>
    <tripinfo id="southEast.2" depart="32.00" departLane="southJunction_0" departPos="5.10" departSpeed="6.77" departDelay="0.32" arrival="177.00" arrivalLane="junctionEast_1" arrivalPos="492.80" arrivalSpeed="7.73" duration="145.00" routeLength="989.53" waitingTime="0.00" waitingCount="0" stopTime="0.00" timeLoss="25.07" rerouteNo="0" devices="tripinfo_southEast.2 ssm_southEast.2" vType="carCustom" speedFactor="0.94" vaporized=""/>
    <tripinfo id="southEast.3" depart="45.00" departLane="southJunction_0" departPos="5.10" departSpeed="7.81" departDelay="0.78" arrival="185.00" arrivalLane="junctionEast_0" arrivalPos="492.80" arrivalSpeed="8.25" duration="140.00" routeLength="989.53" waitingTime="0.00" waitingCount="0" stopTime="0.00" timeLoss="20.40" rerouteNo="0" devices="tripinfo_southEast.3 ssm_southEast.3" vType="carCustom" speedFactor="1.00" vaporized=""/>
    <tripinfo id="southNorth.2" depart="57.00" departLane="southJunction_1" departPos="5.10" departSpeed="7.44" departDelay="0.50" arrival="189.00" arrivalLane="junctionNorth_0" arrivalPos="492.80" arrivalSpeed="7.27" duration="132.00" routeLength="995.01" waitingTime="0.00" waitingCount="0" stopTime="0.00" timeLoss="12.28" rerouteNo="0" devices="tripinfo_southNorth.2 ssm_southNorth.2" vType="carCustom" speedFactor="1.07" vaporized=""/>
    <tripinfo id="westEastBottom0.1" depart="29.00" departLane="westJunction_0" departPos="5.10" departSpeed="7.46" departDelay="0.68" arrival="191.00" arrivalLane="junctionEast_0" arrivalPos="492.80" arrivalSpeed="8.33" duration="162.00" routeLength="994.90" waitingTime="0.00" waitingCount="0" stopTime="0.00" timeLoss="41.60" rerouteNo="0" devices="tripinfo_westEastBottom0.1 ssm_westEastBottom0.1" vType="carCustom" speedFactor="0.90" vaporized=""/>
    <tripinfo id="westEastTop.4" depart="19.00" departLane="westJunction_1" departPos="5.10" departSpeed="1.81" departDelay="8.44" arrival="197.00" arrivalLane="junctionEast_0" arrivalPos="492.80" arrivalSpeed="8.03" duration="178.00" routeLength="994.90" waitingTime="0.00" waitingCount="0" stopTime="0.00" timeLoss="57.92" rerouteNo="0" devices="tripinfo_westEastTop.4 ssm_westEastTop.4" vType="carCustom" speedFactor="0.90" vaporized=""/>
    <tripinfo id="westEastBottom0.2" depart="37.00" departLane="westJunction_0" departPos="5.10" departSpeed="4.56" departDelay="0.45" arrival="202.00" arrivalLane="junctionEast_0" arrivalPos="492.80" arrivalSpeed="7.40" duration="165.00" routeLength="994.90" waitingTime="0.00" waitingCount="0" stopTime="0.00" timeLoss="44.99" rerouteNo="0" devices="tripinfo_westEastBottom0.2 ssm_westEastBottom0.2" vType="carCustom" speedFactor="1.10" vaporized=""/>
    <tripinfo id="westEastTop.5" depart="25.00" departLane="westJunction_1" departPos="5.10" departSpeed="2.56" departDelay="14.07" arrival="208.00" arrivalLane="junctionEast_0" arrivalPos="492.80" arrivalSpeed="7.40" duration="183.00" routeLength="994.90" waitingTime="1.00" waitingCount="1" stopTime="0.00" timeLoss="62.99" rerouteNo="0" devices="tripinfo_westEastTop.5 ssm_westEastTop.5" vType="carCustom" speedFactor="0.87" vaporized=""/>
    <tripinfo id="westEastBottom0.3" depart="42.00" departLane="westJunction_0" departPos="5.10" departSpeed="5.07" departDelay="0.98" arrival="209.00" arrivalLane="junctionEast_0" arrivalPos="492.80" arrivalSpeed="8.33" duration="167.00" routeLength="994.90" waitingTime="0.00" waitingCount="0" stopTime="0.00" timeLoss="47.06" rerouteNo="0" devices="tripinfo_westEastBottom0.3 ssm_westEastBottom0.3" vType="carCustom" speedFactor="0.92" vaporized=""/>
    <tripinfo id="westEastTop.6" depart="31.00" departLane="westJunction_1" departPos="5.10" departSpeed="1.86" departDelay="5.74" arrival="218.00" arrivalLane="junctionEast_1" arrivalPos="492.80" arrivalSpeed="7.77" duration="187.00" routeLength="994.90" waitingTime="0.00" waitingCount="0" stopTime="0.00" timeLoss="66.88" rerouteNo="0" devices="tripinfo_westEastTop.6 ssm_westEastTop.6" vType="carCustom" speedFactor="0.98" vaporized=""/>
    <tripinfo id="westEastBottom0.4" depart="45.00" departLane="westJunction_0" departPos="5.10" departSpeed="3.60" departDelay="0.51" arrival="218.00" arrivalLane="junctionEast_0" arrivalPos="492.80" arrivalSpeed="7.69" duration="173.00" routeLength="994.90" waitingTime="0.00" waitingCount="0" stopTime="0.00" timeLoss="52.67" rerouteNo="0" devices="tripinfo_westEastBottom0.4 ssm_westEastBottom0.4" vType="carCustom" speedFactor="1.01" vaporized=""/>
    <tripinfo id="southNorth.3" depart="75.00" departLane="southJunction_1" departPos="5.10" departSpeed="7.31" departDelay="0.63" arrival="220.00" arrivalLane="junctionNorth_0" arrivalPos="492.80" arrivalSpeed="7.29" duration="145.00" routeLength="995.01" waitingTime="10.00" waitingCount="1" stopTime="0.00" timeLoss="25.24" rerouteNo="0" devices="tripinfo_southNorth.3 ssm_southNorth.3" vType="carCustom" speedFactor="0.85" vaporized=""/>
    <tripinfo id="southEast.4" depart="68.00" departLane="southJunction_0" departPos="5.10" departSpeed="7.96" departDelay="0.92" arrival="227.00" arrivalLane="junctionEast_0" arrivalPos="492.80" arrivalSpeed="7.79" duration="159.00" routeLength="989.53" waitingTime="7.00" waitingCount="1" stopTime="0.00" timeLoss="39.48" rerouteNo="0" devices="tripinfo_southEast.4 ssm_southEast.4" vType="carCustom" speedFactor="1.04" vaporized=""/>
    <tripinfo id="westEastTop.7" depart="38.00" departLane="westJunction_1" departPos="5.10" departSpeed="2.35" departDelay="8.38" arrival="228.00" arrivalLane="junctionEast_1" arrivalPos="492.80" arrivalSpeed="7.86" duration="190.00" routeLength="994.90" waitingTime="0.00" waitingCount="0" stopTime="0.00" timeLoss="69.95" rerouteNo="0" devices="tripinfo_westEastTop.7 ssm_westEastTop.7" vType="carCustom" speedFactor="0.96" vaporized=""/>
    <tripinfo id="southNorth.4" depart="78.00" departLane="southJunction_1" departPos="5.10" departSpeed="7.62" departDelay="0.15" arrival="231.00" arrivalLane="junctionNorth_0" arrivalPos="492.80" arrivalSpeed="7.69" duration="153.00" routeLength="995.01" waitingTime="1.00" waitingCount="1" stopTime="0.00" timeLoss="33.22" rerouteNo="0" devices="tripinfo_southNorth.4 ssm_southNorth.4" vType="carCustom" speedFactor="0.99" vaporized=""/>
    <tripinfo id="westEastBottom0.5" depart="57.00" departLane="westJunction_0" departPos="5.10" departSpeed="3.30" departDelay="0.03" arrival="237.00" arrivalLane="junctionEast_0" arrivalPos="492.80" arrivalSpeed="7.53" duration="180.00" routeLength="994.90" waitingTime="0.00" waitingCount="0" stopTime="0.00" timeLoss="59.98" rerouteNo="0" devices="tripinfo_westEastBottom0.5 ssm_westEastBottom0.5" vType="carCustom" speedFactor="0.87" vaporized=""/>
    <tripinfo id="southEast.5" depart="76.00" departLane="southJunction_0" departPos="5.10" departSpeed="7.69" departDelay="0.37" arrival="238.00" arrivalLane="junctionEast_1" arrivalPos="492.80" arrivalSpeed="7.72" duration="162.00" routeLength="989.53" waitingTime="1.00" waitingCount="1" stopTime="0.00" timeLoss="42.06" rerouteNo="0" devices="tripinfo_southEast.5 ssm_southEast.5" vType="carCustom" speedFactor="0.99" vaporized=""/>
    <tripinfo id="southNorth.5" depart="81.00" departLane="southJunction_1" departPos="5.10" departSpeed="5.03" departDelay="1.73" arrival="243.00" arrivalLane="junctionNorth_0" arrivalPos="492.80" arrivalSpeed="7.78" duration="162.00" routeLength="995.01" waitingTime="1.00" waitingCount="1" stopTime="0.00" timeLoss="41.93" rerouteNo="0" devices="tripinfo_southNorth.5 ssm_southNorth.5" vType="carCustom" speedFactor="0.94" vaporized=""/>
    <tripinfo id="westEastBottom0.6" depart="61.00" departLane="westJunction_0" departPos="5.10" departSpeed="3.29" departDelay="2.45" arrival="246.00" arrivalLane="junctionEast_0" arrivalPos="492.80" arrivalSpeed="8.11" duration="185.00" routeLength="994.90" waitingTime="0.00" waitingCount="0" stopTime="0.00" timeLoss="65.57" rerouteNo="0" devices="tripinfo_westEastBottom0.6 ssm_westEastBottom0.6" vType="carCustom" speedFactor="0.84" vaporized=""/>
    <tripinfo id="westEastTop.8" depart="45.00" departLane="westJunction_1" departPos="5.10" departSpeed="1.79" departDelay="15.30" arrival="248.00" arrivalLane="junctionEast_1" arrivalPos="492.80" arrivalSpeed="7.52" duration="203.00" routeLength="994.90" waitingTime="0.00" waitingCount="0" stopTime="0.00" timeLoss="82.70" rerouteNo="0" devices="tripinfo_westEastTop.8 ssm_westEastTop.8" vType="carCustom" speedFactor="0.98" vaporized=""/>
    <tripinfo id="southEast.12" depart="171.00" departLane="southJunction_0" departPos="5.10" departSpeed="7.75" departDelay="1.23" arrival="252.00" arrivalLane="junctionEast_0" arrivalPos="492.80" arrivalSpeed="2.48" duration="81.00" routeLength="989.53" waitingTime="0.00" waitingCount="0" stopTime="0.00" timeLoss="21.05" rerouteNo="0" devices="tripinfo_southEast.12 ssm_southEast.12" vType="carCustom" speedFactor="0.95" vaporized="teleport"/>
    <tripinfo id="southEast.6" depart="89.00" departLane="southJunction_0" departPos="5.10" departSpeed="6.68" departDelay="0.30" arrival="255.00" arrivalLane="junctionEast_0" arrivalPos="492.80" arrivalSpeed="8.12" duration="166.00" routeLength="989.53" waitingTime="0.00" waitingCount="0" stopTime="0.00" timeLoss="47.07" rerouteNo="0" devices="tripinfo_southEast.6 ssm_southEast.6" vType="carCustom" speedFactor="1.15" vaporized=""/>
    <tripinfo id="southNorth.6" depart="100.00" departLane="southJunction_1" departPos="5.10" departSpeed="4.78" departDelay="0.42" arrival="255.00" arrivalLane="junctionNorth_0" arrivalPos="492.80" arrivalSpeed="7.98" duration="155.00" routeLength="995.01" waitingTime="5.00" waitingCount="1" stopTime="0.00" timeLoss="34.84" rerouteNo="0" devices="tripinfo_southNorth.6 ssm_southNorth.6" vType="carCustom" speedFactor="0.83" vaporized=""/>
    <tripinfo id="westEastTop.9" depart="52.00" departLane="westJunction_1" departPos="5.10" departSpeed="1.97" departDelay="20.08" arrival="257.00" arrivalLane="junctionEast_1" arrivalPos="492.80" arrivalSpeed="8.19" duration="205.00" routeLength="994.90" waitingTime="0.00" waitingCount="0" stopTime="0.00" timeLoss="85.05" rerouteNo="0" devices="tripinfo_westEastTop.9 ssm_westEastTop.9" vType="carCustom" speedFactor="0.88" vaporized=""/>
    <tripinfo id="westEastBottom0.7" depart="76.00" departLane="westJunction_0" departPos="5.10" departSpeed="3.17" departDelay="0.03" arrival="265.00" arrivalLane="junctionEast_0" arrivalPos="492.80" arrivalSpeed="7.81" duration="189.00" routeLength="994.90" waitingTime="0.00" waitingCount="0" stopTime="0.00" timeLoss="69.49" rerouteNo="0" devices="tripinfo_westEastBottom0.7 ssm_westEastBottom0.7" vType="carCustom" speedFactor="1.11" vaporized=""/>
    <tripinfo id="westEastTop.10" depart="59.00" departLane="westJunction_1" departPos="5.10" departSpeed="1.42" departDelay="23.98" arrival="266.00" arrivalLane="junctionEast_1" arrivalPos="492.80" arrivalSpeed="7.64" duration="207.00" routeLength="994.90" waitingTime="0.00" waitingCount="0" stopTime="0.00" timeLoss="87.48" rerouteNo="0" devices="tripinfo_westEastTop.10 ssm_westEastTop.10" vType="carCustom" speedFactor="0.91" vaporized=""/>
    <tripinfo id="southNorth.7" depart="103.00" departLane="southJunction_1" departPos="5.10" departSpeed="6.50" departDelay="3.17" arrival="267.00" arrivalLane="junctionNorth_0" arrivalPos="492.80" arrivalSpeed="7.48" duration="164.00" routeLength="995.01" waitingTime="2.00" waitingCount="1" stopTime="0.00" timeLoss="43.84" rerouteNo="0" devices="tripinfo_southNorth.7 ssm_southNorth.7" vType="carCustom" speedFactor="1.07" vaporized=""/>
    <tripinfo id="westEastBottom0.8" depart="96.00" departLane="westJunction_0" departPos="5.10" departSpeed="4.07" departDelay="0.79" arrival="275.00" arrivalLane="junctionEast_0" arrivalPos="492.80" arrivalSpeed="7.65" duration="179.00" routeLength="994.90" waitingTime="0.00" waitingCount="0" stopTime="0.00" timeLoss="59.51" rerouteNo="0" devices="tripinfo_westEastBottom0.8 ssm_westEastBottom0.8" vType="carCustom" speedFactor="1.05" vaporized=""/>
    <tripinfo id="westEastTop.11" depart="65.00" departLane="westJunction_1" departPos="5.10" departSpeed="1.57" departDelay="27.22" arrival="276.00" arrivalLane="junctionEast_1" arrivalPos="492.80" arrivalSpeed="8.04" duration="211.00" routeLength="994.90" waitingTime="0.00" waitingCount="0" stopTime="0.00" timeLoss="91.21" rerouteNo="0" devices="tripinfo_westEastTop.11 ssm_westEastTop.11" vType="carCustom" speedFactor="0.97" vaporized=""/>
    <tripinfo id="southNorth.8" depart="109.00" departLane="southJunction_1" departPos="5.10" departSpeed="3.38" departDelay="0.27" arrival="278.00" arrivalLane="junctionNorth_0" arrivalPos="492.80" arrivalSpeed="7.67" duration="169.00" routeLength="995.01" waitingTime="1.00" waitingCount="1" stopTime="0.00" timeLoss="48.79" rerouteNo="0" devices="tripinfo_southNorth.8 ssm_southNorth.8" vType="carCustom" speedFactor="1.07" vaporized=""/>
    <tripinfo id="southEast.8" depart="112.00" departLane="southJunction_0" departPos="5.10" departSpeed="7.12" departDelay="0.32" arrival="284.00" arrivalLane="junctionEast_0" arrivalPos="492.80" arrivalSpeed="7.52" duration="172.00" routeLength="989.53" waitingTime="0.00" waitingCount="0" stopTime="0.00" timeLoss="52.75" rerouteNo="0" devices="tripinfo_southEast.8 ssm_southEast.8" vType="carCustom" speedFactor="1.01" vaporized=""/>
    <tripinfo id="westEastTop.12" depart="73.00" departLane="westJunction_1" departPos="5.10" departSpeed="1.72" departDelay="29.36" arrival="286.00" arrivalLane="junctionEast_1" arrivalPos="492.80" arrivalSpeed="7.53" duration="213.00" routeLength="994.90" waitingTime="0.00" waitingCount="0" stopTime="0.00" timeLoss="92.98" rerouteNo="0" devices="tripinfo_westEastTop.12 ssm_westEastTop.12" vType="carCustom" speedFactor="0.90" vaporized=""/>
    <tripinfo id="southNorth.9" depart="114.00" departLane="southJunction_1" departPos="5.10" departSpeed="3.62" departDelay="0.01" arrival="288.00" arrivalLane="junctionNorth_0" arrivalPos="492.80" arrivalSpeed="8.15" duration="174.00" routeLength="995.01" waitingTime="1.00" waitingCount="1" stopTime="0.00" timeLoss="54.55" rerouteNo="0" devices="tripinfo_southNorth.9 ssm_southNorth.9" vType="carCustom" speedFactor="0.97" vaporized=""/>
    <tripinfo id="westEastBottom0.9" depart="99.00" departLane="westJunction_0" departPos="5.10" departSpeed="7.70" departDelay="0.52" arrival="294.00" arrivalLane="junctionEast_0" arrivalPos="492.80" arrivalSpeed="8.00" duration="195.00" routeLength="994.90" waitingTime="1.00" waitingCount="1" stopTime="0.00" timeLoss="74.69" rerouteNo="0" devices="tripinfo_westEastBottom0.9 ssm_westEastBottom0.9" vType="carCustom" speedFactor="1.01" vaporized=""/>
    <tripinfo id="westEastBottom0.10" depart="102.00" departLane="westJunction_0" departPos="5.10" departSpeed="5.09" departDelay="1.43" arrival="295.00" arrivalLane="junctionEast_1" arrivalPos="492.80" arrivalSpeed="8.28" duration="193.00" routeLength="994.90" waitingTime="0.00" waitingCount="0" stopTime="0.00" timeLoss="73.42" rerouteNo="0" devices="tripinfo_westEastBottom0.10 ssm_westEastBottom0.10" vType="carCustom" speedFactor="0.97" vaporized=""/>
    <tripinfo id="southNorth.10" depart="136.00" departLane="southJunction_1" departPos="5.10" departSpeed="4.46" departDelay="0.49" arrival="299.00" arrivalLane="junctionNorth_0" arrivalPos="492.80" arrivalSpeed="8.09" duration="163.00" routeLength="995.01" waitingTime="1.00" waitingCount="1" stopTime="0.00" timeLoss="43.21" rerouteNo="0" devices="tripinfo_southNorth.10 ssm_southNorth.10" vType="carCustom" speedFactor="1.21" vaporized=""/>
    <tripinfo id="southEast.9" depart="128.00" departLane="southJunction_0" departPos="5.10" departSpeed="6.92" departDelay="0.56" arrival="303.00" arrivalLane="junctionEast_0" arrivalPos="492.80" arrivalSpeed="7.76" duration="175.00" routeLength="989.53" waitingTime="0.00" waitingCount="0" stopTime="0.00" timeLoss="55.14" rerouteNo="0" devices="tripinfo_southEast.9 ssm_southEast.9" vType="carCustom" speedFactor="0.97" vaporized=""/>
    <tripinfo id="westEastBottom0.11" depart="111.00" departLane="westJunction_0" departPos="5.10" departSpeed="3.17" departDelay="0.49" arrival="305.00" arrivalLane="junctionEast_1" arrivalPos="492.80" arrivalSpeed="7.98" duration="194.00" routeLength="994.90" waitingTime="0.00" waitingCount="0" stopTime="0.00" timeLoss="73.66" rerouteNo="0" devices="tripinfo_westEastBottom0.11 ssm_westEastBottom0.11" vType="carCustom" speedFactor="1.06" vaporized=""/>
    <tripinfo id="southNorth.11" depart="139.00" departLane="southJunction_1" departPos="5.10" departSpeed="7.41" departDelay="0.33" arrival="310.00" arrivalLane="junctionNorth_0" arrivalPos="492.80" arrivalSpeed="7.81" duration="171.00" routeLength="995.01" waitingTime="1.00" waitingCount="1" stopTime="0.00" timeLoss="51.42" rerouteNo="0" devices="tripinfo_southNorth.11 ssm_southNorth.11" vType="carCustom" speedFactor="1.03" vaporized=""/>
    <tripinfo id="southEast.10" depart="140.00" departLane="southJunction_0" departPos="5.10" departSpeed="8.12" departDelay="0.46" arrival="312.00" arrivalLane="junctionEast_0" arrivalPos="492.80" arrivalSpeed="7.43" duration="172.00" routeLength="989.53" waitingTime="0.00" waitingCount="0" stopTime="0.00" timeLoss="52.47" rerouteNo="0" devices="tripinfo_southEast.10 ssm_southEast.10" vType="carCustom" speedFactor="1.03" vaporized=""/>
    <tripinfo id="westEastTop.13" depart="81.00" departLane="westJunction_1" departPos="5.10" departSpeed="1.54" departDelay="27.73" arrival="314.00" arrivalLane="junctionEast_1" arrivalPos="492.80" arrivalSpeed="7.93" duration="233.00" routeLength="994.90" waitingTime="2.00" waitingCount="1" stopTime="0.00" timeLoss="113.03" rerouteNo="0" devices="tripinfo_westEastTop.13 ssm_westEastTop.13" vType="carCustom" speedFactor="1.11" vaporized=""/>
    <tripinfo id="westEastBottom0.12" depart="115.00" departLane="westJunction_0" departPos="5.10" departSpeed="4.17" departDelay="3.19" arrival="321.00" arrivalLane="junctionEast_0" arrivalPos="492.80" arrivalSpeed="7.23" duration="206.00" routeLength="994.90" waitingTime="0.00" waitingCount="0" stopTime="0.00" timeLoss="85.81" rerouteNo="0" devices="tripinfo_westEastBottom0.12 ssm_westEastBottom0.12" vType="carCustom" speedFactor="1.12" vaporized=""/>
    <tripinfo id="southNorth.12" depart="154.00" departLane="southJunction_1" departPos="5.10" departSpeed="5.12" departDelay="0.34" arrival="321.00" arrivalLane="junctionNorth_0" arrivalPos="492.80" arrivalSpeed="8.07" duration="167.00" routeLength="995.01" waitingTime="0.00" waitingCount="0" stopTime="0.00" timeLoss="47.08" rerouteNo="0" devices="tripinfo_southNorth.12 ssm_southNorth.12" vType="carCustom" speedFactor="0.97" vaporized=""/>
    <tripinfo id="westEastTop.14" depart="89.00" departLane="westJunction_1" departPos="5.10" departSpeed="1.65" departDelay="30.31" arrival="323.00" arrivalLane="junctionEast_0" arrivalPos="492.80" arrivalSpeed="8.07" duration="234.00" routeLength="994.90" waitingTime="1.00" waitingCount="1" stopTime="0.00" timeLoss="114.38" rerouteNo="0" devices="tripinfo_westEastTop.14 ssm_westEastTop.14" vType="carCustom" speedFactor="1.13" vaporized=""/>
    <tripinfo id="westEastBottom0.13" depart="126.00" departLane="westJunction_0" departPos="5.10" departSpeed="3.42" departDelay="0.52" arrival="330.00" arrivalLane="junctionEast_0" arrivalPos="492.80" arrivalSpeed="7.77" duration="204.00" routeLength="994.90" waitingTime="0.00" waitingCount="0" stopTime="0.00" timeLoss="84.44" rerouteNo="0" devices="tripinfo_westEastBottom0.13 ssm_westEastBottom0.13" vType="carCustom" speedFactor="1.07" vaporized=""/>
    <tripinfo id="southNorth.13" depart="159.00" departLane="southJunction_1" departPos="5.10" departSpeed="5.67" departDelay="0.40" arrival="331.00" arrivalLane="junctionNorth_0" arrivalPos="492.80" arrivalSpeed="7.88" duration="172.00" routeLength="995.01" waitingTime="1.00" waitingCount="1" stopTime="0.00" timeLoss="52.26" rerouteNo="0" devices="tripinfo_southNorth.13 ssm_southNorth.13" vType="carCustom" speedFactor="0.90" vaporized=""/>
    <tripinfo id="westEastTop.15" depart="96.00" departLane="westJunction_1" departPos="5.10" departSpeed="1.97" departDelay="24.02" arrival="332.00" arrivalLane="junctionEast_1" arrivalPos="492.80" arrivalSpeed="7.40" duration="236.00" routeLength="994.90" waitingTime="1.00" waitingCount="1" stopTime="0.00" timeLoss="116.44" rerouteNo="0" devices="tripinfo_westEastTop.15 ssm_westEastTop.15" vType="carCustom" speedFactor="1.00" vaporized=""/>
    <tripinfo id="westEastBottom0.14" depart="130.00" departLane="westJunction_0" departPos="5.10" departSpeed="4.21" departDelay="3.15" arrival="339.00" arrivalLane="junctionEast_0" arrivalPos="492.80" arrivalSpeed="8.15" duration="209.00" routeLength="994.90" waitingTime="0.00" waitingCount="0" stopTime="0.00" timeLoss="89.21" rerouteNo="0" devices="tripinfo_westEastBottom0.14 ssm_westEastBottom0.14" vType="carCustom" speedFactor="1.15" vaporized=""/>
    <tripinfo id="westEastTop.16" depart="102.00" departLane="westJunction_1" departPos="5.10" departSpeed="1.93" departDelay="28.29" arrival="341.00" arrivalLane="junctionEast_1" arrivalPos="492.80" arrivalSpeed="7.64" duration="239.00" routeLength="994.90" waitingTime="1.00" waitingCount="1" stopTime="0.00" timeLoss="119.50" rerouteNo="0" devices="tripinfo_westEastTop.16 ssm_westEastTop.16" vType="carCustom" speedFactor="0.97" vaporized=""/>
    <tripinfo id="southNorth.14" depart="171.00" departLane="southJunction_1" departPos="5.10" departSpeed="4.68" departDelay="0.83" arrival="342.00" arrivalLane="junctionNorth_0" arrivalPos="492.80" arrivalSpeed="7.47" duration="171.00" routeLength="995.01" waitingTime="6.00" waitingCount="1" stopTime="0.00" timeLoss="51.03" rerouteNo="0" devices="tripinfo_southNorth.14 ssm_southNorth.14" vType="carCustom" speedFactor="1.16" vaporized=""/>
    <tripinfo id="southEast.11" depart="169.00" departLane="southJunction_0" departPos="5.10" departSpeed="7.82" departDelay="0.05" arrival="348.00" arrivalLane="junctionEast_0" arrivalPos="492.80" arrivalSpeed="7.72" duration="179.00" routeLength="989.53" waitingTime="3.00" waitingCount="1" stopTime="0.00" timeLoss="58.93" rerouteNo="0" devices="tripinfo_southEast.11 ssm_southEast.11" vType="carCustom" speedFactor="0.90" vaporized=""/>
    <tripinfo id="westEastBottom0.15" depart="134.00" departLane="westJunction_0" departPos="5.10" departSpeed="2.37" departDelay="0.58" arrival="351.00" arrivalLane="junctionEast_0" arrivalPos="492.80" arrivalSpeed="8.15" duration="217.00" routeLength="994.90" waitingTime="0.00" waitingCount="0" stopTime="0.00" timeLoss="96.65" rerouteNo="0" devices="tripinfo_westEastBottom0.15 ssm_westEastBottom0.15" vType="carCustom" speedFactor="1.00" vaporized=""/>
    <tripinfo id="southNorth.15" depart="179.00" departLane="southJunction_1" departPos="5.10" departSpeed="6.10" departDelay="0.66" arrival="353.00" arrivalLane="junctionNorth_0" arrivalPos="492.80" arrivalSpeed="7.78" duration="174.00" routeLength="995.01" waitingTime="3.00" waitingCount="1" stopTime="0.00" timeLoss="54.21" rerouteNo="0" devices="tripinfo_southNorth.15 ssm_southNorth.15" vType="carCustom" speedFactor="1.05" vaporized=""/>
    <tripinfo id="westEastBottom0.16" depart="167.00" departLane="westJunction_0" departPos="5.10" departSpeed="3.33" departDelay="0.23" arrival="357.00" arrivalLane="junctionEast_0" arrivalPos="492.80" arrivalSpeed="7.78" duration="190.00" routeLength="994.90" waitingTime="0.00" waitingCount="0" stopTime="0.00" timeLoss="69.81" rerouteNo="0" devices="tripinfo_westEastBottom0.16 ssm_westEastBottom0.16" vType="carCustom" speedFactor="0.84" vaporized=""/>