<?xml version="1.0" encoding="UTF-8"?>

<!-- generated on 2025-04-29 07:52:51 by Eclipse SUMO sumo Version 1.20.0
<configuration xmlns:xsi="http://www.w3.org/2001/XMLSchema-instance" xsi:noNamespaceSchemaLocation="http://sumo.dlr.de/xsd/sumoConfiguration.xsd">

    <input>
        <net-file value="nets/2lane_unprotected_right/2lane_unprotected_right.net.xml"/>
        <route-files value="nets/2lane_unprotected_right/2lane_unprotected_right.rou.xml"/>
    </input>

    <output>
        <tripinfo-output value="traces/transs50f0.5_s50_f1_random/0129_tripinfo.xml"/>
        <collision-output value="traces/transs50f0.5_s50_f1_random/0129_collisions.xml"/>
        <statistic-output value="traces/transs50f0.5_s50_f1_random/0129_statistics.xml"/>
    </output>

    <processing>
        <collision.action value="teleport"/>
        <collision.check-junctions value="true"/>
        <time-to-teleport value="-1"/>
        <waiting-time-memory value="1000"/>
        <max-depart-delay value="-1"/>
        <default.speeddev value="0.1"/>
    </processing>

    <report>
        <no-warnings value="true"/>
    </report>

    <ssm_device>
        <device.ssm.probability value="1.0"/>
        <device.ssm.measures value="BR"/>
        <device.ssm.file value="/Users/finn/Code/CausalKnowledgeTransfer-4-SafeRL/traces/transs50f0.5_s50_f1_random/0129_ssm.xml"/>
    </ssm_device>

    <traci_server>
        <remote-port value="63999"/>
    </traci_server>

    <random_number>
        <random value="true"/>
    </random_number>

</configuration>
-->

<tripinfos xmlns:xsi="http://www.w3.org/2001/XMLSchema-instance" xsi:noNamespaceSchemaLocation="http://sumo.dlr.de/xsd/tripinfo_file.xsd">
    <tripinfo id="southNorth.0" depart="7.00" departLane="southJunction_1" departPos="5.10" departSpeed="22.22" departDelay="0.01" arrival="54.00" arrivalLane="junctionNorth_0" arrivalPos="492.80" arrivalSpeed="21.71" duration="47.00" routeLength="995.01" waitingTime="0.00" waitingCount="0" stopTime="0.00" timeLoss="1.25" rerouteNo="0" devices="tripinfo_southNorth.0 ssm_southNorth.0" vType="carCustom" speedFactor="0.89" vaporized=""/>
    <tripinfo id="westEastTop.0" depart="9.00" departLane="westJunction_1" departPos="5.10" departSpeed="22.22" departDelay="0.99" arrival="56.00" arrivalLane="junctionEast_0" arrivalPos="492.80" arrivalSpeed="21.30" duration="47.00" routeLength="994.90" waitingTime="0.00" waitingCount="0" stopTime="0.00" timeLoss="2.20" rerouteNo="0" devices="tripinfo_westEastTop.0 ssm_westEastTop.0" vType="carCustom" speedFactor="1.00" vaporized=""/>
    <tripinfo id="westEastBottom0.1" depart="12.00" departLane="westJunction_0" departPos="5.10" departSpeed="21.58" departDelay="0.49" arrival="59.00" arrivalLane="junctionEast_1" arrivalPos="492.80" arrivalSpeed="21.25" duration="47.00" routeLength="994.90" waitingTime="0.00" waitingCount="0" stopTime="0.00" timeLoss="1.60" rerouteNo="0" devices="tripinfo_westEastBottom0.1 ssm_westEastBottom0.1" vType="carCustom" speedFactor="0.94" vaporized=""/>
    <tripinfo id="westEastBottom0.0" depart="5.00" departLane="westJunction_0" departPos="5.10" departSpeed="22.22" departDelay="0.72" arrival="60.00" arrivalLane="junctionEast_0" arrivalPos="492.80" arrivalSpeed="21.27" duration="55.00" routeLength="994.90" waitingTime="0.00" waitingCount="0" stopTime="0.00" timeLoss="9.67" rerouteNo="0" devices="tripinfo_westEastBottom0.0 ssm_westEastBottom0.0" vType="carCustom" speedFactor="0.70" vaporized=""/>
    <tripinfo id="southNorth.1" depart="15.00" departLane="southJunction_1" departPos="5.10" departSpeed="22.02" departDelay="0.98" arrival="62.00" arrivalLane="junctionNorth_0" arrivalPos="492.80" arrivalSpeed="21.26" duration="47.00" routeLength="995.01" waitingTime="0.00" waitingCount="0" stopTime="0.00" timeLoss="1.80" rerouteNo="0" devices="tripinfo_southNorth.1 ssm_southNorth.1" vType="carCustom" speedFactor="1.00" vaporized=""/>
    <tripinfo id="southEast.0" depart="9.00" departLane="southJunction_0" departPos="5.10" departSpeed="22.22" departDelay="0.99" arrival="65.00" arrivalLane="junctionEast_0" arrivalPos="492.80" arrivalSpeed="21.67" duration="56.00" routeLength="989.53" waitingTime="2.00" waitingCount="1" stopTime="0.00" timeLoss="10.15" rerouteNo="0" devices="tripinfo_southEast.0 ssm_southEast.0" vType="carCustom" speedFactor="1.13" vaporized=""/>
    <tripinfo id="westEastTop.1" depart="17.00" departLane="westJunction_1" departPos="5.10" departSpeed="22.02" departDelay="0.97" arrival="67.00" arrivalLane="junctionEast_0" arrivalPos="492.80" arrivalSpeed="21.65" duration="50.00" routeLength="994.90" waitingTime="0.00" waitingCount="0" stopTime="0.00" timeLoss="5.14" rerouteNo="0" devices="tripinfo_westEastTop.1 ssm_westEastTop.1" vType="carCustom" speedFactor="1.07" vaporized=""/>
    <tripinfo id="southNorth.2" depart="24.00" departLane="southJunction_1" departPos="5.10" departSpeed="21.30" departDelay="0.20" arrival="71.00" arrivalLane="junctionNorth_0" arrivalPos="492.80" arrivalSpeed="20.96" duration="47.00" routeLength="995.01" waitingTime="0.00" waitingCount="0" stopTime="0.00" timeLoss="2.20" rerouteNo="0" devices="tripinfo_southNorth.2 ssm_southNorth.2" vType="carCustom" speedFactor="1.15" vaporized=""/>
    <tripinfo id="southEast.1" depart="27.00" departLane="southJunction_0" departPos="5.10" departSpeed="22.19" departDelay="0.34" arrival="79.00" arrivalLane="junctionEast_0" arrivalPos="492.80" arrivalSpeed="21.44" duration="52.00" routeLength="989.53" waitingTime="0.00" waitingCount="0" stopTime="0.00" timeLoss="6.41" rerouteNo="0" devices="tripinfo_southEast.1 ssm_southEast.1" vType="carCustom" speedFactor="0.99" vaporized=""/>
    <tripinfo id="westEastTop.2" depart="24.00" departLane="westJunction_1" departPos="5.10" departSpeed="21.03" departDelay="0.71" arrival="80.00" arrivalLane="junctionEast_1" arrivalPos="492.80" arrivalSpeed="20.93" duration="56.00" routeLength="994.90" waitingTime="5.00" waitingCount="1" stopTime="0.00" timeLoss="10.94" rerouteNo="0" devices="tripinfo_westEastTop.2 ssm_westEastTop.2" vType="carCustom" speedFactor="1.01" vaporized=""/>
    <tripinfo id="westEastTop.3" depart="26.00" departLane="westJunction_1" departPos="5.10" departSpeed="21.14" departDelay="2.71" arrival="82.00" arrivalLane="junctionEast_0" arrivalPos="492.80" arrivalSpeed="22.14" duration="56.00" routeLength="994.90" waitingTime="1.00" waitingCount="1" stopTime="0.00" timeLoss="11.09" rerouteNo="0" devices="tripinfo_westEastTop.3 ssm_westEastTop.3" vType="carCustom" speedFactor="1.05" vaporized=""/>
    <tripinfo id="southNorth.3" depart="31.00" departLane="southJunction_1" departPos="5.10" departSpeed="21.56" departDelay="0.13" arrival="84.00" arrivalLane="junctionNorth_0" arrivalPos="492.80" arrivalSpeed="21.72" duration="53.00" routeLength="995.01" waitingTime="0.00" waitingCount="0" stopTime="0.00" timeLoss="7.54" rerouteNo="0" devices="tripinfo_southNorth.3 ssm_southNorth.3" vType="carCustom" speedFactor="1.11" vaporized=""/>
    <tripinfo id="southNorth.4" depart="34.00" departLane="southJunction_1" departPos="5.10" departSpeed="21.30" departDelay="0.69" arrival="86.00" arrivalLane="junctionNorth_0" arrivalPos="492.80" arrivalSpeed="22.19" duration="52.00" routeLength="995.01" waitingTime="0.00" waitingCount="0" stopTime="0.00" timeLoss="6.56" rerouteNo="0" devices="tripinfo_southNorth.4 ssm_southNorth.4" vType="carCustom" speedFactor="1.08" vaporized=""/>
    <tripinfo id="westEastTop.4" depart="28.00" departLane="westJunction_1" departPos="5.10" departSpeed="21.90" departDelay="2.12" arrival="90.00" arrivalLane="junctionEast_0" arrivalPos="492.80" arrivalSpeed="21.72" duration="62.00" routeLength="994.90" waitingTime="2.00" waitingCount="1" stopTime="0.00" timeLoss="16.63" rerouteNo="0" devices="tripinfo_westEastTop.4 ssm_westEastTop.4" vType="carCustom" speedFactor="0.92" vaporized=""/>
    <tripinfo id="westEastTop.5" depart="30.00" departLane="westJunction_1" departPos="5.10" departSpeed="20.55" departDelay="2.39" arrival="92.00" arrivalLane="junctionEast_0" arrivalPos="492.80" arrivalSpeed="21.94" duration="62.00" routeLength="994.90" waitingTime="1.00" waitingCount="1" stopTime="0.00" timeLoss="16.55" rerouteNo="0" devices="tripinfo_westEastTop.5 ssm_westEastTop.5" vType="carCustom" speedFactor="0.97" vaporized=""/>
    <tripinfo id="southNorth.5" depart="40.00" departLane="southJunction_1" departPos="5.10" departSpeed="20.95" departDelay="0.64" arrival="94.00" arrivalLane="junctionNorth_0" arrivalPos="492.80" arrivalSpeed="21.27" duration="54.00" routeLength="995.01" waitingTime="0.00" waitingCount="0" stopTime="0.00" timeLoss="9.00" rerouteNo="0" devices="tripinfo_southNorth.5 ssm_southNorth.5" vType="carCustom" speedFactor="1.01" vaporized=""/>
    <tripinfo id="southNorth.6" depart="46.00" departLane="southJunction_1" departPos="5.10" departSpeed="21.44" departDelay="0.38" arrival="96.00" arrivalLane="junctionNorth_0" arrivalPos="492.80" arrivalSpeed="21.50" duration="50.00" routeLength="995.01" waitingTime="0.00" waitingCount="0" stopTime="0.00" timeLoss="5.02" rerouteNo="0" devices="tripinfo_southNorth.6 ssm_southNorth.6" vType="carCustom" speedFactor="0.98" vaporized=""/>
    <tripinfo id="southNorth.7" depart="48.00" departLane="southJunction_1" departPos="5.10" departSpeed="21.16" departDelay="1.53" arrival="98.00" arrivalLane="junctionNorth_0" arrivalPos="492.80" arrivalSpeed="21.59" duration="50.00" routeLength="995.01" waitingTime="0.00" waitingCount="0" stopTime="0.00" timeLoss="5.06" rerouteNo="0" devices="tripinfo_southNorth.7 ssm_southNorth.7" vType="carCustom" speedFactor="0.96" vaporized=""/>
    <tripinfo id="westEastBottom0.2" depart="48.00" departLane="westJunction_0" departPos="5.10" departSpeed="22.22" departDelay="0.10" arrival="102.00" arrivalLane="junctionEast_0" arrivalPos="492.80" arrivalSpeed="21.07" duration="54.00" routeLength="994.90" waitingTime="0.00" waitingCount="0" stopTime="0.00" timeLoss="9.22" rerouteNo="0" devices="tripinfo_westEastBottom0.2 ssm_westEastBottom0.2" vType="carCustom" speedFactor="1.15" vaporized=""/>
    <tripinfo id="westEastTop.6" depart="47.00" departLane="westJunction_1" departPos="5.10" departSpeed="21.31" departDelay="0.18" arrival="103.00" arrivalLane="junctionEast_1" arrivalPos="492.80" arrivalSpeed="21.02" duration="56.00" routeLength="994.90" waitingTime="0.00" waitingCount="0" stopTime="0.00" timeLoss="11.17" rerouteNo="0" devices="tripinfo_westEastTop.6 ssm_westEastTop.6" vType="carCustom" speedFactor="0.93" vaporized=""/>
    <tripinfo id="westEastBottom0.3" depart="52.00" departLane="westJunction_0" departPos="5.10" departSpeed="21.22" departDelay="0.65" arrival="105.00" arrivalLane="junctionEast_0" arrivalPos="492.80" arrivalSpeed="21.58" duration="53.00" routeLength="994.90" waitingTime="0.00" waitingCount="0" stopTime="0.00" timeLoss="7.33" rerouteNo="0" devices="tripinfo_westEastBottom0.3 ssm_westEastBottom0.3" vType="carCustom" speedFactor="0.87" vaporized=""/>
    <tripinfo id="westEastTop.7" depart="49.00" departLane="westJunction_1" departPos="5.10" departSpeed="21.72" departDelay="1.09" arrival="106.00" arrivalLane="junctionEast_1" arrivalPos="492.80" arrivalSpeed="21.31" duration="57.00" routeLength="994.90" waitingTime="0.00" waitingCount="0" stopTime="0.00" timeLoss="11.52" rerouteNo="0" devices="tripinfo_westEastTop.7 ssm_westEastTop.7" vType="carCustom" speedFactor="1.19" vaporized=""/>
    <tripinfo id="southEast.2" depart="52.00" departLane="southJunction_0" departPos="5.10" departSpeed="22.22" departDelay="0.63" arrival="108.00" arrivalLane="junctionEast_0" arrivalPos="492.80" arrivalSpeed="21.76" duration="56.00" routeLength="989.53" waitingTime="0.00" waitingCount="0" stopTime="0.00" timeLoss="10.32" rerouteNo="0" devices="tripinfo_southEast.2 ssm_southEast.2" vType="carCustom" speedFactor="0.89" vaporized=""/>
    <tripinfo id="southNorth.8" depart="52.00" departLane="southJunction_1" departPos="5.10" departSpeed="20.75" departDelay="0.62" arrival="108.00" arrivalLane="junctionNorth_0" arrivalPos="492.80" arrivalSpeed="21.92" duration="56.00" routeLength="995.01" waitingTime="0.00" waitingCount="0" stopTime="0.00" timeLoss="10.81" rerouteNo="0" devices="tripinfo_southNorth.8 ssm_southNorth.8" vType="carCustom" speedFactor="1.14" vaporized=""/>
    <tripinfo id="southNorth.9" depart="54.00" departLane="southJunction_1" departPos="5.10" departSpeed="21.89" departDelay="0.76" arrival="110.00" arrivalLane="junctionNorth_0" arrivalPos="492.80" arrivalSpeed="22.20" duration="56.00" routeLength="995.01" waitingTime="0.00" waitingCount="0" stopTime="0.00" timeLoss="10.96" rerouteNo="0" devices="tripinfo_southNorth.9 ssm_southNorth.9" vType="carCustom" speedFactor="1.09" vaporized=""/>
    <tripinfo id="westEastTop.8" depart="53.00" departLane="westJunction_1" departPos="5.10" departSpeed="21.83" departDelay="0.36" arrival="113.00" arrivalLane="junctionEast_0" arrivalPos="492.80" arrivalSpeed="21.10" duration="60.00" routeLength="994.90" waitingTime="2.00" waitingCount="1" stopTime="0.00" timeLoss="14.84" rerouteNo="0" devices="tripinfo_westEastTop.8 ssm_westEastTop.8" vType="carCustom" speedFactor="1.13" vaporized=""/>
    <tripinfo id="westEastTop.9" depart="55.00" departLane="westJunction_1" departPos="5.10" departSpeed="21.51" departDelay="1.84" arrival="115.00" arrivalLane="junctionEast_0" arrivalPos="492.80" arrivalSpeed="21.50" duration="60.00" routeLength="994.90" waitingTime="2.00" waitingCount="1" stopTime="0.00" timeLoss="14.98" rerouteNo="0" devices="tripinfo_westEastTop.9 ssm_westEastTop.9" vType="carCustom" speedFactor="1.09" vaporized=""/>
    <tripinfo id="westEastBottom0.4" depart="65.00" departLane="westJunction_0" departPos="5.10" departSpeed="20.95" departDelay="0.84" arrival="117.00" arrivalLane="junctionEast_1" arrivalPos="492.80" arrivalSpeed="21.42" duration="52.00" routeLength="994.90" waitingTime="0.00" waitingCount="0" stopTime="0.00" timeLoss="6.69" rerouteNo="0" devices="tripinfo_westEastBottom0.4 ssm_westEastBottom0.4" vType="carCustom" speedFactor="1.07" vaporized=""/>
    <tripinfo id="westEastBottom0.5" depart="67.00" departLane="westJunction_0" departPos="5.10" departSpeed="21.97" departDelay="0.70" arrival="117.00" arrivalLane="junctionEast_0" arrivalPos="492.80" arrivalSpeed="21.17" duration="50.00" routeLength="994.90" waitingTime="0.00" waitingCount="0" stopTime="0.00" timeLoss="5.13" rerouteNo="0" devices="tripinfo_westEastBottom0.5 ssm_westEastBottom0.5" vType="carCustom" speedFactor="1.07" vaporized=""/>
    <tripinfo id="westEastTop.10" depart="67.00" departLane="westJunction_1" departPos="5.10" departSpeed="20.81" departDelay="0.00" arrival="119.00" arrivalLane="junctionEast_1" arrivalPos="492.80" arrivalSpeed="21.80" duration="52.00" routeLength="994.90" waitingTime="0.00" waitingCount="0" stopTime="0.00" timeLoss="6.84" rerouteNo="0" devices="tripinfo_westEastTop.10 ssm_westEastTop.10" vType="carCustom" speedFactor="1.07" vaporized=""/>
    <tripinfo id="westEastBottom0.6" depart="70.00" departLane="westJunction_0" departPos="5.10" departSpeed="21.34" departDelay="0.23" arrival="120.00" arrivalLane="junctionEast_0" arrivalPos="492.80" arrivalSpeed="20.96" duration="50.00" routeLength="994.90" waitingTime="0.00" waitingCount="0" stopTime="0.00" timeLoss="4.50" rerouteNo="0" devices="tripinfo_westEastBottom0.6 ssm_westEastBottom0.6" vType="carCustom" speedFactor="1.02" vaporized=""/>
    <tripinfo id="southEast.8" depart="93.00" departLane="southJunction_0" departPos="5.10" departSpeed="21.72" departDelay="0.27" arrival="120.00" arrivalLane="junctionEast_0" arrivalPos="492.80" arrivalSpeed="4.83" duration="27.00" routeLength="989.53" waitingTime="0.00" waitingCount="0" stopTime="0.00" timeLoss="3.92" rerouteNo="0" devices="tripinfo_southEast.8 ssm_southEast.8" vType="carCustom" speedFactor="0.86" vaporized="teleport"/>
    <tripinfo id="southNorth.10" depart="73.00" departLane="southJunction_1" departPos="5.10" departSpeed="18.45" departDelay="0.53" arrival="121.00" arrivalLane="junctionNorth_0" arrivalPos="492.80" arrivalSpeed="21.93" duration="48.00" routeLength="995.01" waitingTime="0.00" waitingCount="0" stopTime="0.00" timeLoss="2.34" rerouteNo="0" devices="tripinfo_southNorth.10 ssm_southNorth.10" vType="carCustom" speedFactor="1.20" vaporized=""/>
    <tripinfo id="southNorth.11" depart="75.00" departLane="southJunction_1" departPos="5.10" departSpeed="22.21" departDelay="0.67" arrival="123.00" arrivalLane="junctionNorth_0" arrivalPos="492.80" arrivalSpeed="21.51" duration="48.00" routeLength="995.01" waitingTime="0.00" waitingCount="0" stopTime="0.00" timeLoss="2.60" rerouteNo="0" devices="tripinfo_southNorth.11 ssm_southNorth.11" vType="carCustom" speedFactor="1.05" vaporized=""/>
    <tripinfo id="southEast.3" depart="72.00" departLane="southJunction_0" departPos="5.10" departSpeed="20.74" departDelay="0.14" arrival="124.00" arrivalLane="junctionEast_0" arrivalPos="492.80" arrivalSpeed="21.74" duration="52.00" routeLength="989.53" waitingTime="0.00" waitingCount="0" stopTime="0.00" timeLoss="5.94" rerouteNo="0" devices="tripinfo_southEast.3 ssm_southEast.3" vType="carCustom" speedFactor="0.95" vaporized=""/>
    <tripinfo id="westEastBottom0.7" depart="76.00" departLane="westJunction_0" departPos="5.10" departSpeed="22.08" departDelay="0.56" arrival="126.00" arrivalLane="junctionEast_1" arrivalPos="492.80" arrivalSpeed="21.29" duration="50.00" routeLength="994.90" waitingTime="0.00" waitingCount="0" stopTime="0.00" timeLoss="4.99" rerouteNo="0" devices="tripinfo_westEastBottom0.7 ssm_westEastBottom0.7" vType="carCustom" speedFactor="1.05" vaporized=""/>
    <tripinfo id="southEast.4" depart="74.00" departLane="southJunction_0" departPos="5.10" departSpeed="20.95" departDelay="1.86" arrival="128.00" arrivalLane="junctionEast_0" arrivalPos="492.80" arrivalSpeed="21.30" duration="54.00" routeLength="989.53" waitingTime="0.00" waitingCount="0" stopTime="0.00" timeLoss="7.48" rerouteNo="0" devices="tripinfo_southEast.4 ssm_southEast.4" vType="carCustom" speedFactor="1.05" vaporized=""/>
    <tripinfo id="westEastTop.11" depart="70.00" departLane="westJunction_1" departPos="5.10" departSpeed="21.78" departDelay="0.94" arrival="130.00" arrivalLane="junctionEast_1" arrivalPos="492.80" arrivalSpeed="22.14" duration="60.00" routeLength="994.90" waitingTime="2.00" waitingCount="1" stopTime="0.00" timeLoss="14.54" rerouteNo="0" devices="tripinfo_westEastTop.11 ssm_westEastTop.11" vType="carCustom" speedFactor="1.09" vaporized=""/>
    <tripinfo id="westEastTop.12" depart="77.00" departLane="westJunction_1" departPos="5.10" departSpeed="21.00" departDelay="0.98" arrival="132.00" arrivalLane="junctionEast_0" arrivalPos="492.80" arrivalSpeed="22.07" duration="55.00" routeLength="994.90" waitingTime="0.00" waitingCount="0" stopTime="0.00" timeLoss="9.51" rerouteNo="0" devices="tripinfo_westEastTop.12 ssm_westEastTop.12" vType="carCustom" speedFactor="0.96" vaporized=""/>
    <tripinfo id="southEast.5" depart="81.00" departLane="southJunction_0" departPos="5.10" departSpeed="21.76" departDelay="0.86" arrival="134.00" arrivalLane="junctionEast_0" arrivalPos="492.80" arrivalSpeed="21.58" duration="53.00" routeLength="989.53" waitingTime="0.00" waitingCount="0" stopTime="0.00" timeLoss="7.67" rerouteNo="0" devices="tripinfo_southEast.5 ssm_southEast.5" vType="carCustom" speedFactor="0.84" vaporized=""/>
    <tripinfo id="westEastTop.13" depart="86.00" departLane="westJunction_1" departPos="5.10" departSpeed="21.08" departDelay="0.53" arrival="134.00" arrivalLane="junctionEast_1" arrivalPos="492.80" arrivalSpeed="21.38" duration="48.00" routeLength="994.90" waitingTime="0.00" waitingCount="0" stopTime="0.00" timeLoss="2.56" rerouteNo="0" devices="tripinfo_westEastTop.13 ssm_westEastTop.13" vType="carCustom" speedFactor="0.96" vaporized=""/>
    <tripinfo id="southEast.6" depart="84.00" departLane="southJunction_0" departPos="5.10" departSpeed="21.33" departDelay="0.85" arrival="138.00" arrivalLane="junctionEast_0" arrivalPos="492.80" arrivalSpeed="21.81" duration="54.00" routeLength="989.53" waitingTime="0.00" waitingCount="0" stopTime="0.00" timeLoss="7.29" rerouteNo="0" devices="tripinfo_southEast.6 ssm_southEast.6" vType="carCustom" speedFactor="1.00" vaporized=""/>
    <tripinfo id="southNorth.12" depart="84.00" departLane="southJunction_1" departPos="5.10" departSpeed="21.56" departDelay="0.27" arrival="139.00" arrivalLane="junctionNorth_0" arrivalPos="492.80" arrivalSpeed="21.15" duration="55.00" routeLength="995.01" waitingTime="0.00" waitingCount="0" stopTime="0.00" timeLoss="9.73" rerouteNo="0" devices="tripinfo_southNorth.12 ssm_southNorth.12" vType="carCustom" speedFactor="1.13" vaporized=""/>
    <tripinfo id="southEast.7" depart="87.00" departLane="southJunction_0" departPos="5.10" departSpeed="22.17" departDelay="0.39" arrival="141.00" arrivalLane="junctionEast_0" arrivalPos="492.80" arrivalSpeed="22.00" duration="54.00" routeLength="989.53" waitingTime="0.00" waitingCount="0" stopTime="0.00" timeLoss="7.60" rerouteNo="0" devices="tripinfo_southEast.7 ssm_southEast.7" vType="carCustom" speedFactor="0.95" vaporized=""/>
    <tripinfo id="westEastBottom0.9" depart="95.00" departLane="westJunction_0" departPos="5.10" departSpeed="22.04" departDelay="0.47" arrival="143.00" arrivalLane="junctionEast_0" arrivalPos="492.80" arrivalSpeed="22.06" duration="48.00" routeLength="994.90" waitingTime="0.00" waitingCount="0" stopTime="0.00" timeLoss="2.94" rerouteNo="0" devices="tripinfo_westEastBottom0.9 ssm_westEastBottom0.9" vType="carCustom" speedFactor="0.95" vaporized=""/>
    <tripinfo id="westEastTop.14" depart="88.00" departLane="westJunction_1" departPos="5.10" departSpeed="21.36" departDelay="1.27" arrival="144.00" arrivalLane="junctionEast_1" arrivalPos="492.80" arrivalSpeed="22.04" duration="56.00" routeLength="994.90" waitingTime="0.00" waitingCount="0" stopTime="0.00" timeLoss="11.02" rerouteNo="0" devices="tripinfo_westEastTop.14 ssm_westEastTop.14" vType="carCustom" speedFactor="1.11" vaporized=""/>
    <tripinfo id="westEastBottom0.8" depart="92.00" departLane="westJunction_0" departPos="5.10" departSpeed="21.51" departDelay="0.10" arrival="146.00" arrivalLane="junctionEast_0" arrivalPos="492.80" arrivalSpeed="21.01" duration="54.00" routeLength="994.90" waitingTime="0.00" waitingCount="0" stopTime="0.00" timeLoss="9.09" rerouteNo="0" devices="tripinfo_westEastBottom0.8 ssm_westEastBottom0.8" vType="carCustom" speedFactor="0.89" vaporized=""/>
    <tripinfo id="southNorth.13" depart="91.00" departLane="southJunction_1" departPos="5.10" departSpeed="21.00" departDelay="0.43" arrival="149.00" arrivalLane="junctionNorth_0" arrivalPos="492.80" arrivalSpeed="21.05" duration="58.00" routeLength="995.01" waitingTime="5.00" waitingCount="1" stopTime="0.00" timeLoss="12.64" rerouteNo="0" devices="tripinfo_southNorth.13 ssm_southNorth.13" vType="carCustom" speedFactor="1.01" vaporized=""/>
    <tripinfo id="southEast.9" depart="98.00" departLane="southJunction_0" departPos="5.10" departSpeed="21.51" departDelay="0.18" arrival="150.00" arrivalLane="junctionEast_0" arrivalPos="492.80" arrivalSpeed="21.34" duration="52.00" routeLength="989.53" waitingTime="0.00" waitingCount="0" stopTime="0.00" timeLoss="6.46" rerouteNo="0" devices="tripinfo_southEast.9 ssm_southEast.9" vType="carCustom" speedFactor="1.13" vaporized=""/>
    <tripinfo id="southNorth.14" depart="99.00" departLane="southJunction_1" departPos="5.10" departSpeed="21.58" departDelay="0.91" arrival="151.00" arrivalLane="junctionNorth_0" arrivalPos="492.80" arrivalSpeed="21.09" duration="52.00" routeLength="995.01" waitingTime="0.00" waitingCount="0" stopTime="0.00" timeLoss="6.85" rerouteNo="0" devices="tripinfo_southNorth.14 ssm_southNorth.14" vType="carCustom" speedFactor="1.02" vaporized=""/>
    <tripinfo id="westEastTop.15" depart="98.00" departLane="westJunction_1" departPos="5.10" departSpeed="22.19" departDelay="0.88" arrival="155.00" arrivalLane="junctionEast_0" arrivalPos="492.80" arrivalSpeed="21.62" duration="57.00" routeLength="994.90" waitingTime="1.00" waitingCount="1" stopTime="0.00" timeLoss="11.89" rerouteNo="0" devices="tripinfo_westEastTop.15 ssm_westEastTop.15" vType="carCustom" speedFactor="0.95" vaporized=""/>
    <tripinfo id="westEastTop.16" depart="100.00" departLane="westJunction_1" departPos="5.10" departSpeed="21.35" departDelay="1.16" arrival="157.00" arrivalLane="junctionEast_1" arrivalPos="492.80" arrivalSpeed="21.73" duration="57.00" routeLength="994.90" waitingTime="0.00" waitingCount="0" stopTime="0.00" timeLoss="11.98" rerouteNo="0" devices="tripinfo_westEastTop.16 ssm_westEastTop.16" vType="carCustom" speedFactor="0.93" vaporized=""/>
    <tripinfo id="southEast.10" depart="105.00" departLane="southJunction_0" departPos="5.10" departSpeed="21.02" departDelay="0.08" arrival="158.00" arrivalLane="junctionEast_0" arrivalPos="492.80" arrivalSpeed="21.52" duration="53.00" routeLength="989.53" waitingTime="0.00" waitingCount="0" stopTime="0.00" timeLoss="6.65" rerouteNo="0" devices="tripinfo_southEast.10 ssm_southEast.10" vType="carCustom" speedFactor="0.95" vaporized=""/>
    <tripinfo id="southNorth.15" depart="103.00" departLane="southJunction_1" departPos="5.10" departSpeed="22.05" departDelay="0.67" arrival="160.00" arrivalLane="junctionNorth_0" arrivalPos="492.80" arrivalSpeed="21.83" duration="57.00" routeLength="995.01" waitingTime="1.00" waitingCount="1" stopTime="0.00" timeLoss="11.58" rerouteNo="0" devices="tripinfo_southNorth.15 ssm_southNorth.15" vType="carCustom" speedFactor="0.99" vaporized=""/>
    <tripinfo id="southNorth.16" depart="106.00" departLane="southJunction_1" departPos="5.10" departSpeed="21.72" departDelay="0.64" arrival="162.00" arrivalLane="junctionNorth_0" arrivalPos="492.80" arrivalSpeed="21.73" duration="56.00" routeLength="995.01" waitingTime="0.00" waitingCount="0" stopTime="0.00" timeLoss="10.66" rerouteNo="0" devices="tripinfo_southNorth.16 ssm_southNorth.16" vType="carCustom" speedFactor="0.99" vaporized=""/>
    <tripinfo id="westEastBottom0.10" depart="113.00" departLane="westJunction_0" departPos="5.10" departSpeed="21.76" departDelay="0.78" arrival="162.00" arrivalLane="junctionEast_0" arrivalPos="492.80" arrivalSpeed="21.44" duration="49.00" routeLength="994.90" waitingTime="0.00" waitingCount="0" stopTime="0.00" timeLoss="4.16" rerouteNo="0" devices="tripinfo_westEastBottom0.10 ssm_westEastBottom0.10" vType="carCustom" speedFactor="1.16" vaporized=""/>
    <tripinfo id="westEastTop.17" depart="102.00" departLane="westJunction_1" departPos="5.10" departSpeed="22.15" departDelay="1.71" arrival="165.00" arrivalLane="junctionEast_1" arrivalPos="492.80" arrivalSpeed="21.46" duration="63.00" routeLength="994.90" waitingTime="3.00" waitingCount="1" stopTime="0.00" timeLoss="17.59" rerouteNo="0" devices="tripinfo_westEastTop.17 ssm_westEastTop.17" vType="carCustom" speedFactor="1.07" vaporized=""/>
    <tripinfo id="westEastBottom0.11" depart="116.00" departLane="westJunction_0" departPos="5.10" departSpeed="21.58" departDelay="0.95" arrival="166.00" arrivalLane="junctionEast_0" arrivalPos="492.80" arrivalSpeed="22.13" duration="50.00" routeLength="994.90" waitingTime="0.00" waitingCount="0" stopTime="0.00" timeLoss="4.64" rerouteNo="0" devices="tripinfo_westEastBottom0.11 ssm_westEastBottom0.11" vType="carCustom" speedFactor="0.83" vaporized=""/>
    <tripinfo id="westEastTop.18" depart="104.00" departLane="westJunction_1" departPos="5.10" departSpeed="21.13" departDelay="2.15" arrival="167.00" arrivalLane="junctionEast_1" arrivalPos="492.80" arrivalSpeed="21.70" duration="63.00" routeLength="994.90" waitingTime="2.00" waitingCount="1" stopTime="0.00" timeLoss="17.76" rerouteNo="0" devices="tripinfo_westEastTop.18 ssm_westEastTop.18" vType="carCustom" speedFactor="1.03" vaporized=""/>
    <tripinfo id="southNorth.17" depart="110.00" departLane="southJunction_1" departPos="5.10" departSpeed="22.09" departDelay="0.20" arrival="170.00" arrivalLane="junctionNorth_0" arrivalPos="492.80" arrivalSpeed="21.55" duration="60.00" routeLength="995.01" waitingTime="2.00" waitingCount="1" stopTime="0.00" timeLoss="14.94" rerouteNo="0" devices="tripinfo_southNorth.17 ssm_southNorth.17" vType="carCustom" speedFactor="1.15" vaporized=""/>
    <tripinfo id="southNorth.18" depart="115.00" departLane="southJunction_1" departPos="5.10" departSpeed="21.09" departDelay="0.73" arrival="172.00" arrivalLane="junctionNorth_0" arrivalPos="492.80" arrivalSpeed="20.95" duration="57.00" routeLength="995.01" waitingTime="0.00" waitingCount="0" stopTime="0.00" timeLoss="12.04" rerouteNo="0" devices="tripinfo_southNorth.18 ssm_southNorth.18" vType="carCustom" speedFactor="0.85" vaporized=""/>
    <tripinfo id="southEast.11" depart="119.00" departLane="southJunction_0" departPos="5.10" departSpeed="20.94" departDelay="0.83" arrival="172.00" arrivalLane="junctionEast_0" arrivalPos="492.80" arrivalSpeed="21.46" duration="53.00" routeLength="989.53" waitingTime="0.00" waitingCount="0" stopTime="0.00" timeLoss="6.98" rerouteNo="0" devices="tripinfo_southEast.11 ssm_southEast.11" vType="carCustom" speedFactor="1.04" vaporized=""/>
    <tripinfo id="southEast.12" depart="122.00" departLane="southJunction_0" departPos="5.10" departSpeed="21.25" departDelay="0.92" arrival="174.00" arrivalLane="junctionEast_0" arrivalPos="492.80" arrivalSpeed="22.12" duration="52.00" routeLength="989.53" waitingTime="0.00" waitingCount="0" stopTime="0.00" timeLoss="6.61" rerouteNo="0" devices="tripinfo_southEast.12 ssm_southEast.12" vType="carCustom" speedFactor="0.99" vaporized=""/>