<?xml version="1.0" encoding="UTF-8"?>

<!-- generated on 2025-04-29 07:56:40 by Eclipse SUMO sumo Version 1.20.0
<configuration xmlns:xsi="http://www.w3.org/2001/XMLSchema-instance" xsi:noNamespaceSchemaLocation="http://sumo.dlr.de/xsd/sumoConfiguration.xsd">

    <input>
        <net-file value="nets/2lane_unprotected_right/2lane_unprotected_right.net.xml"/>
        <route-files value="nets/2lane_unprotected_right/2lane_unprotected_right.rou.xml"/>
    </input>

    <output>
        <tripinfo-output value="traces/transs50f0.5_s50_f1_random/0133_tripinfo.xml"/>
        <collision-output value="traces/transs50f0.5_s50_f1_random/0133_collisions.xml"/>
        <statistic-output value="traces/transs50f0.5_s50_f1_random/0133_statistics.xml"/>
    </output>

    <processing>
        <collision.action value="teleport"/>
        <collision.check-junctions value="true"/>
        <time-to-teleport value="-1"/>
        <waiting-time-memory value="1000"/>
        <max-depart-delay value="-1"/>
        <default.speeddev value="0.1"/>
    </processing>

    <report>
        <no-warnings value="true"/>
    </report>

    <ssm_device>
        <device.ssm.probability value="1.0"/>
        <device.ssm.measures value="BR"/>
        <device.ssm.file value="/Users/finn/Code/CausalKnowledgeTransfer-4-SafeRL/traces/transs50f0.5_s50_f1_random/0133_ssm.xml"/>
    </ssm_device>

    <traci_server>
        <remote-port value="64050"/>
    </traci_server>

    <random_number>
        <random value="true"/>
    </random_number>

</configuration>
-->

<tripinfos xmlns:xsi="http://www.w3.org/2001/XMLSchema-instance" xsi:noNamespaceSchemaLocation="http://sumo.dlr.de/xsd/tripinfo_file.xsd">
    <tripinfo id="westEastBottom0.0" depart="5.00" departLane="westJunction_0" departPos="5.10" departSpeed="27.78" departDelay="0.85" arrival="25.00" arrivalLane="junctionEast_0" arrivalPos="492.80" arrivalSpeed="25.83" duration="20.00" routeLength="994.90" waitingTime="0.00" waitingCount="0" stopTime="0.00" timeLoss="1.22" rerouteNo="0" devices="tripinfo_westEastBottom0.0 ssm_westEastBottom0.0" vType="carCustom" speedFactor="1.10" vaporized="teleport"/>
    <tripinfo id="westEastTop.0" depart="2.00" departLane="westJunction_1" departPos="5.10" departSpeed="27.78" departDelay="0.91" arrival="39.00" arrivalLane="junctionEast_1" arrivalPos="492.80" arrivalSpeed="27.18" duration="37.00" routeLength="994.90" waitingTime="0.00" waitingCount="0" stopTime="0.00" timeLoss="0.88" rerouteNo="0" devices="tripinfo_westEastTop.0 ssm_westEastTop.0" vType="carCustom" speedFactor="0.93" vaporized=""/>
    <tripinfo id="southEast.0" depart="2.00" departLane="southJunction_0" departPos="5.10" departSpeed="27.33" departDelay="0.01" arrival="43.00" arrivalLane="junctionEast_0" arrivalPos="492.80" arrivalSpeed="27.40" duration="41.00" routeLength="989.53" waitingTime="0.00" waitingCount="0" stopTime="0.00" timeLoss="3.67" rerouteNo="0" devices="tripinfo_southEast.0 ssm_southEast.0" vType="carCustom" speedFactor="1.11" vaporized=""/>
    <tripinfo id="westEastTop.1" depart="4.00" departLane="westJunction_1" departPos="5.10" departSpeed="27.71" departDelay="0.15" arrival="50.00" arrivalLane="junctionEast_1" arrivalPos="492.80" arrivalSpeed="27.61" duration="46.00" routeLength="994.90" waitingTime="0.00" waitingCount="0" stopTime="0.00" timeLoss="10.17" rerouteNo="0" devices="tripinfo_westEastTop.1 ssm_westEastTop.1" vType="carCustom" speedFactor="1.27" vaporized=""/>
    <tripinfo id="southEast.1" depart="5.00" departLane="southJunction_0" departPos="5.10" departSpeed="26.92" departDelay="0.55" arrival="58.00" arrivalLane="junctionEast_0" arrivalPos="492.80" arrivalSpeed="26.82" duration="53.00" routeLength="989.53" waitingTime="0.00" waitingCount="0" stopTime="0.00" timeLoss="16.49" rerouteNo="0" devices="tripinfo_southEast.1 ssm_southEast.1" vType="carCustom" speedFactor="1.07" vaporized=""/>
    <tripinfo id="westEastTop.2" depart="8.00" departLane="westJunction_1" departPos="5.10" departSpeed="21.41" departDelay="0.56" arrival="61.00" arrivalLane="junctionEast_1" arrivalPos="492.80" arrivalSpeed="26.66" duration="53.00" routeLength="994.90" waitingTime="0.00" waitingCount="0" stopTime="0.00" timeLoss="16.62" rerouteNo="0" devices="tripinfo_westEastTop.2 ssm_westEastTop.2" vType="carCustom" speedFactor="0.99" vaporized=""/>
    <tripinfo id="westEastBottom0.1" depart="20.00" departLane="westJunction_0" departPos="5.10" departSpeed="27.72" departDelay="0.03" arrival="71.00" arrivalLane="junctionEast_1" arrivalPos="492.80" arrivalSpeed="27.07" duration="51.00" routeLength="994.90" waitingTime="0.00" waitingCount="0" stopTime="0.00" timeLoss="14.39" rerouteNo="0" devices="tripinfo_westEastBottom0.1 ssm_westEastBottom0.1" vType="carCustom" speedFactor="0.97" vaporized=""/>
    <tripinfo id="southEast.2" depart="8.00" departLane="southJunction_0" departPos="5.10" departSpeed="22.20" departDelay="0.22" arrival="73.00" arrivalLane="junctionEast_0" arrivalPos="492.80" arrivalSpeed="27.01" duration="65.00" routeLength="989.53" waitingTime="0.00" waitingCount="0" stopTime="0.00" timeLoss="27.27" rerouteNo="0" devices="tripinfo_southEast.2 ssm_southEast.2" vType="carCustom" speedFactor="0.96" vaporized=""/>
    <tripinfo id="southNorth.0" depart="30.00" departLane="southJunction_1" departPos="5.10" departSpeed="27.33" departDelay="0.48" arrival="76.00" arrivalLane="junctionNorth_0" arrivalPos="492.80" arrivalSpeed="26.78" duration="46.00" routeLength="995.01" waitingTime="0.00" waitingCount="0" stopTime="0.00" timeLoss="9.93" rerouteNo="0" devices="tripinfo_southNorth.0 ssm_southNorth.0" vType="carCustom" speedFactor="1.09" vaporized=""/>
    <tripinfo id="southEast.3" depart="10.00" departLane="southJunction_0" departPos="5.10" departSpeed="19.04" departDelay="1.10" arrival="82.00" arrivalLane="junctionEast_0" arrivalPos="492.80" arrivalSpeed="27.77" duration="72.00" routeLength="989.53" waitingTime="0.00" waitingCount="0" stopTime="0.00" timeLoss="34.73" rerouteNo="0" devices="tripinfo_southEast.3 ssm_southEast.3" vType="carCustom" speedFactor="1.08" vaporized=""/>
    <tripinfo id="westEastTop.3" depart="12.00" departLane="westJunction_1" departPos="5.10" departSpeed="15.29" departDelay="0.66" arrival="84.00" arrivalLane="junctionEast_1" arrivalPos="492.80" arrivalSpeed="27.40" duration="72.00" routeLength="994.90" waitingTime="3.00" waitingCount="1" stopTime="0.00" timeLoss="34.95" rerouteNo="0" devices="tripinfo_westEastTop.3 ssm_westEastTop.3" vType="carCustom" speedFactor="0.90" vaporized=""/>
    <tripinfo id="southEast.5" depart="42.00" departLane="southJunction_0" departPos="5.10" departSpeed="15.83" departDelay="1.47" arrival="84.00" arrivalLane="junctionEast_0" arrivalPos="492.80" arrivalSpeed="6.46" duration="42.00" routeLength="989.53" waitingTime="0.00" waitingCount="0" stopTime="0.00" timeLoss="23.38" rerouteNo="0" devices="tripinfo_southEast.5 ssm_southEast.5" vType="carCustom" speedFactor="1.09" vaporized="teleport"/>
    <tripinfo id="southNorth.1" depart="38.00" departLane="southJunction_1" departPos="5.10" departSpeed="27.15" departDelay="0.71" arrival="87.00" arrivalLane="junctionNorth_0" arrivalPos="492.80" arrivalSpeed="27.49" duration="49.00" routeLength="995.01" waitingTime="0.00" waitingCount="0" stopTime="0.00" timeLoss="12.73" rerouteNo="0" devices="tripinfo_southNorth.1 ssm_southNorth.1" vType="carCustom" speedFactor="1.00" vaporized=""/>
    <tripinfo id="westEastBottom0.2" depart="41.00" departLane="westJunction_0" departPos="5.10" departSpeed="27.78" departDelay="0.08" arrival="93.00" arrivalLane="junctionEast_0" arrivalPos="492.80" arrivalSpeed="27.30" duration="52.00" routeLength="994.90" waitingTime="0.00" waitingCount="0" stopTime="0.00" timeLoss="15.31" rerouteNo="0" devices="tripinfo_westEastBottom0.2 ssm_westEastBottom0.2" vType="carCustom" speedFactor="0.85" vaporized=""/>
    <tripinfo id="westEastTop.4" depart="19.00" departLane="westJunction_1" departPos="5.10" departSpeed="10.47" departDelay="0.85" arrival="94.00" arrivalLane="junctionEast_1" arrivalPos="492.80" arrivalSpeed="27.30" duration="75.00" routeLength="994.90" waitingTime="0.00" waitingCount="0" stopTime="0.00" timeLoss="38.72" rerouteNo="0" devices="tripinfo_westEastTop.4 ssm_westEastTop.4" vType="carCustom" speedFactor="0.99" vaporized=""/>
    <tripinfo id="southNorth.2" depart="45.00" departLane="southJunction_1" departPos="5.10" departSpeed="19.33" departDelay="0.04" arrival="98.00" arrivalLane="junctionNorth_0" arrivalPos="492.80" arrivalSpeed="27.41" duration="53.00" routeLength="995.01" waitingTime="0.00" waitingCount="0" stopTime="0.00" timeLoss="16.46" rerouteNo="0" devices="tripinfo_southNorth.2 ssm_southNorth.2" vType="carCustom" speedFactor="1.04" vaporized=""/>
    <tripinfo id="southEast.4" depart="40.00" departLane="southJunction_0" departPos="5.10" departSpeed="11.96" departDelay="0.89" arrival="101.00" arrivalLane="junctionEast_0" arrivalPos="492.80" arrivalSpeed="27.70" duration="61.00" routeLength="989.53" waitingTime="0.00" waitingCount="0" stopTime="0.00" timeLoss="24.37" rerouteNo="0" devices="tripinfo_southEast.4 ssm_southEast.4" vType="carCustom" speedFactor="1.00" vaporized=""/>
    <tripinfo id="westEastTop.5" depart="34.00" departLane="westJunction_1" departPos="5.10" departSpeed="10.60" departDelay="0.07" arrival="107.00" arrivalLane="junctionEast_1" arrivalPos="492.80" arrivalSpeed="27.30" duration="73.00" routeLength="994.90" waitingTime="2.00" waitingCount="1" stopTime="0.00" timeLoss="36.87" rerouteNo="0" devices="tripinfo_westEastTop.5 ssm_westEastTop.5" vType="carCustom" speedFactor="1.19" vaporized=""/>
    <tripinfo id="westEastBottom0.3" depart="52.00" departLane="westJunction_0" departPos="5.10" departSpeed="19.76" departDelay="0.34" arrival="110.00" arrivalLane="junctionEast_0" arrivalPos="492.80" arrivalSpeed="27.66" duration="58.00" routeLength="994.90" waitingTime="0.00" waitingCount="0" stopTime="0.00" timeLoss="21.43" rerouteNo="0" devices="tripinfo_westEastBottom0.3 ssm_westEastBottom0.3" vType="carCustom" speedFactor="1.07" vaporized=""/>
    <tripinfo id="southNorth.3" depart="58.00" departLane="southJunction_1" departPos="5.10" departSpeed="14.43" departDelay="0.70" arrival="111.00" arrivalLane="junctionNorth_0" arrivalPos="492.80" arrivalSpeed="27.07" duration="53.00" routeLength="995.01" waitingTime="0.00" waitingCount="0" stopTime="0.00" timeLoss="16.81" rerouteNo="0" devices="tripinfo_southNorth.3 ssm_southNorth.3" vType="carCustom" speedFactor="1.01" vaporized=""/>
    <tripinfo id="westEastTop.6" depart="41.00" departLane="westJunction_1" departPos="5.10" departSpeed="13.77" departDelay="0.97" arrival="116.00" arrivalLane="junctionEast_1" arrivalPos="492.80" arrivalSpeed="27.12" duration="75.00" routeLength="994.90" waitingTime="0.00" waitingCount="0" stopTime="0.00" timeLoss="38.46" rerouteNo="0" devices="tripinfo_westEastTop.6 ssm_westEastTop.6" vType="carCustom" speedFactor="0.96" vaporized=""/>
    <tripinfo id="southEast.7" depart="53.00" departLane="southJunction_0" departPos="5.10" departSpeed="10.27" departDelay="0.03" arrival="119.00" arrivalLane="junctionEast_0" arrivalPos="492.80" arrivalSpeed="27.07" duration="66.00" routeLength="989.53" waitingTime="0.00" waitingCount="0" stopTime="0.00" timeLoss="28.84" rerouteNo="0" devices="tripinfo_southEast.7 ssm_southEast.7" vType="carCustom" speedFactor="1.10" vaporized=""/>
    <tripinfo id="southNorth.4" depart="60.00" departLane="southJunction_1" departPos="5.10" departSpeed="11.61" departDelay="1.59" arrival="122.00" arrivalLane="junctionNorth_0" arrivalPos="492.80" arrivalSpeed="26.50" duration="62.00" routeLength="995.01" waitingTime="0.00" waitingCount="0" stopTime="0.00" timeLoss="25.90" rerouteNo="0" devices="tripinfo_southNorth.4 ssm_southNorth.4" vType="carCustom" speedFactor="0.81" vaporized=""/>
    <tripinfo id="westEastTop.7" depart="47.00" departLane="westJunction_1" departPos="5.10" departSpeed="11.44" departDelay="0.69" arrival="124.00" arrivalLane="junctionEast_1" arrivalPos="492.80" arrivalSpeed="26.94" duration="77.00" routeLength="994.90" waitingTime="0.00" waitingCount="0" stopTime="0.00" timeLoss="40.63" rerouteNo="0" devices="tripinfo_westEastTop.7 ssm_westEastTop.7" vType="carCustom" speedFactor="1.10" vaporized=""/>
    <tripinfo id="westEastBottom0.5" depart="89.00" departLane="westJunction_0" departPos="5.10" departSpeed="23.05" departDelay="0.09" arrival="124.00" arrivalLane="junctionEast_0" arrivalPos="492.80" arrivalSpeed="8.11" duration="35.00" routeLength="994.90" waitingTime="0.00" waitingCount="0" stopTime="0.00" timeLoss="16.91" rerouteNo="0" devices="tripinfo_westEastBottom0.5 ssm_westEastBottom0.5" vType="carCustom" speedFactor="0.99" vaporized="teleport"/>
    <tripinfo id="southEast.6" depart="46.00" departLane="southJunction_0" departPos="5.10" departSpeed="10.70" departDelay="0.71" arrival="127.00" arrivalLane="junctionEast_0" arrivalPos="492.80" arrivalSpeed="27.62" duration="81.00" routeLength="989.53" waitingTime="0.00" waitingCount="0" stopTime="0.00" timeLoss="43.61" rerouteNo="0" devices="tripinfo_southEast.6 ssm_southEast.6" vType="carCustom" speedFactor="1.20" vaporized=""/>
    <tripinfo id="westEastTop.8" depart="56.00" departLane="westJunction_1" departPos="5.10" departSpeed="10.58" departDelay="0.52" arrival="134.00" arrivalLane="junctionEast_1" arrivalPos="492.80" arrivalSpeed="27.68" duration="78.00" routeLength="994.90" waitingTime="3.00" waitingCount="1" stopTime="0.00" timeLoss="42.14" rerouteNo="0" devices="tripinfo_westEastTop.8 ssm_westEastTop.8" vType="carCustom" speedFactor="1.05" vaporized=""/>
    <tripinfo id="southEast.8" depart="54.00" departLane="southJunction_0" departPos="5.10" departSpeed="9.57" departDelay="0.86" arrival="135.00" arrivalLane="junctionEast_0" arrivalPos="492.80" arrivalSpeed="27.60" duration="81.00" routeLength="989.53" waitingTime="0.00" waitingCount="0" stopTime="0.00" timeLoss="43.77" rerouteNo="0" devices="tripinfo_southEast.8 ssm_southEast.8" vType="carCustom" speedFactor="0.87" vaporized=""/>
    <tripinfo id="southNorth.5" depart="64.00" departLane="southJunction_1" departPos="5.10" departSpeed="6.31" departDelay="0.67" arrival="138.00" arrivalLane="junctionNorth_0" arrivalPos="492.80" arrivalSpeed="27.75" duration="74.00" routeLength="995.01" waitingTime="5.00" waitingCount="1" stopTime="0.00" timeLoss="37.84" rerouteNo="0" devices="tripinfo_southNorth.5 ssm_southNorth.5" vType="carCustom" speedFactor="1.10" vaporized=""/>
    <tripinfo id="westEastBottom0.4" depart="83.00" departLane="westJunction_0" departPos="5.10" departSpeed="27.78" departDelay="0.40" arrival="143.00" arrivalLane="junctionEast_0" arrivalPos="492.80" arrivalSpeed="27.08" duration="60.00" routeLength="994.90" waitingTime="0.00" waitingCount="0" stopTime="0.00" timeLoss="23.95" rerouteNo="0" devices="tripinfo_westEastBottom0.4 ssm_westEastBottom0.4" vType="carCustom" speedFactor="1.14" vaporized=""/>
    <tripinfo id="westEastTop.9" depart="67.00" departLane="westJunction_1" departPos="5.10" departSpeed="10.87" departDelay="0.36" arrival="147.00" arrivalLane="junctionEast_1" arrivalPos="492.80" arrivalSpeed="27.59" duration="80.00" routeLength="994.90" waitingTime="5.00" waitingCount="1" stopTime="0.00" timeLoss="43.90" rerouteNo="0" devices="tripinfo_westEastTop.9 ssm_westEastTop.9" vType="carCustom" speedFactor="1.03" vaporized=""/>
    <tripinfo id="southNorth.6" depart="68.00" departLane="southJunction_1" departPos="5.10" departSpeed="5.77" departDelay="0.42" arrival="147.00" arrivalLane="junctionNorth_0" arrivalPos="492.80" arrivalSpeed="26.92" duration="79.00" routeLength="995.01" waitingTime="0.00" waitingCount="0" stopTime="0.00" timeLoss="42.85" rerouteNo="0" devices="tripinfo_southNorth.6 ssm_southNorth.6" vType="carCustom" speedFactor="0.89" vaporized=""/>
    <tripinfo id="southEast.9" depart="65.00" departLane="southJunction_0" departPos="5.10" departSpeed="10.54" departDelay="0.15" arrival="151.00" arrivalLane="junctionEast_0" arrivalPos="492.80" arrivalSpeed="26.79" duration="86.00" routeLength="989.53" waitingTime="0.00" waitingCount="0" stopTime="0.00" timeLoss="48.39" rerouteNo="0" devices="tripinfo_southEast.9 ssm_southEast.9" vType="carCustom" speedFactor="0.87" vaporized=""/>
    <tripinfo id="southNorth.7" depart="71.00" departLane="southJunction_1" departPos="5.10" departSpeed="4.96" departDelay="2.28" arrival="156.00" arrivalLane="junctionNorth_0" arrivalPos="492.80" arrivalSpeed="27.66" duration="85.00" routeLength="995.01" waitingTime="0.00" waitingCount="0" stopTime="0.00" timeLoss="48.39" rerouteNo="0" devices="tripinfo_southNorth.7 ssm_southNorth.7" vType="carCustom" speedFactor="1.00" vaporized=""/>
    <tripinfo id="southEast.10" depart="74.00" departLane="southJunction_0" departPos="5.10" departSpeed="11.67" departDelay="0.89" arrival="158.00" arrivalLane="junctionEast_0" arrivalPos="492.80" arrivalSpeed="26.83" duration="84.00" routeLength="989.53" waitingTime="0.00" waitingCount="0" stopTime="0.00" timeLoss="47.27" rerouteNo="0" devices="tripinfo_southEast.10 ssm_southEast.10" vType="carCustom" speedFactor="0.90" vaporized=""/>
    <tripinfo id="westEastTop.10" depart="69.00" departLane="westJunction_1" departPos="5.10" departSpeed="12.72" departDelay="1.68" arrival="159.00" arrivalLane="junctionEast_1" arrivalPos="492.80" arrivalSpeed="26.88" duration="90.00" routeLength="994.90" waitingTime="6.00" waitingCount="1" stopTime="0.00" timeLoss="53.58" rerouteNo="0" devices="tripinfo_westEastTop.10 ssm_westEastTop.10" vType="carCustom" speedFactor="1.00" vaporized=""/>
    <tripinfo id="southNorth.8" depart="75.00" departLane="southJunction_1" departPos="5.10" departSpeed="3.55" departDelay="4.12" arrival="165.00" arrivalLane="junctionNorth_0" arrivalPos="492.80" arrivalSpeed="26.94" duration="90.00" routeLength="995.01" waitingTime="0.00" waitingCount="0" stopTime="0.00" timeLoss="54.07" rerouteNo="0" devices="tripinfo_southNorth.8 ssm_southNorth.8" vType="carCustom" speedFactor="1.12" vaporized=""/>
    <tripinfo id="southEast.11" depart="76.00" departLane="southJunction_0" departPos="5.10" departSpeed="12.35" departDelay="1.34" arrival="166.00" arrivalLane="junctionEast_0" arrivalPos="492.80" arrivalSpeed="27.64" duration="90.00" routeLength="989.53" waitingTime="0.00" waitingCount="0" stopTime="0.00" timeLoss="52.11" rerouteNo="0" devices="tripinfo_southEast.11 ssm_southEast.11" vType="carCustom" speedFactor="0.87" vaporized=""/>
    <tripinfo id="westEastTop.11" depart="71.00" departLane="westJunction_1" departPos="5.10" departSpeed="9.57" departDelay="0.26" arrival="170.00" arrivalLane="junctionEast_1" arrivalPos="492.80" arrivalSpeed="26.51" duration="99.00" routeLength="994.90" waitingTime="4.00" waitingCount="1" stopTime="0.00" timeLoss="62.27" rerouteNo="0" devices="tripinfo_westEastTop.11 ssm_westEastTop.11" vType="carCustom" speedFactor="0.90" vaporized=""/>
    <tripinfo id="westEastBottom0.6" depart="94.00" departLane="westJunction_0" departPos="5.10" departSpeed="16.77" departDelay="0.74" arrival="173.00" arrivalLane="junctionEast_0" arrivalPos="492.80" arrivalSpeed="27.37" duration="79.00" routeLength="994.90" waitingTime="0.00" waitingCount="0" stopTime="0.00" timeLoss="42.65" rerouteNo="0" devices="tripinfo_westEastBottom0.6 ssm_westEastBottom0.6" vType="carCustom" speedFactor="0.94" vaporized=""/>
    <tripinfo id="southNorth.9" depart="79.00" departLane="southJunction_1" departPos="5.10" departSpeed="3.53" departDelay="8.05" arrival="175.00" arrivalLane="junctionNorth_0" arrivalPos="492.80" arrivalSpeed="26.86" duration="96.00" routeLength="995.01" waitingTime="0.00" waitingCount="0" stopTime="0.00" timeLoss="59.62" rerouteNo="0" devices="tripinfo_southNorth.9 ssm_southNorth.9" vType="carCustom" speedFactor="0.97" vaporized=""/>
    <tripinfo id="southEast.12" depart="79.00" departLane="southJunction_0" departPos="5.10" departSpeed="7.93" departDelay="0.24" arrival="180.00" arrivalLane="junctionEast_0" arrivalPos="492.80" arrivalSpeed="26.71" duration="101.00" routeLength="989.53" waitingTime="0.00" waitingCount="0" stopTime="0.00" timeLoss="64.07" rerouteNo="0" devices="tripinfo_southEast.12 ssm_southEast.12" vType="carCustom" speedFactor="1.00" vaporized=""/>
    <tripinfo id="westEastTop.12" depart="75.00" departLane="westJunction_1" departPos="5.10" departSpeed="5.22" departDelay="0.80" arrival="181.00" arrivalLane="junctionEast_1" arrivalPos="492.80" arrivalSpeed="26.97" duration="106.00" routeLength="994.90" waitingTime="6.00" waitingCount="1" stopTime="0.00" timeLoss="69.87" rerouteNo="0" devices="tripinfo_westEastTop.12 ssm_westEastTop.12" vType="carCustom" speedFactor="1.11" vaporized=""/>
    <tripinfo id="southNorth.10" depart="84.00" departLane="southJunction_1" departPos="5.10" departSpeed="2.73" departDelay="13.00" arrival="183.00" arrivalLane="junctionNorth_0" arrivalPos="492.80" arrivalSpeed="26.59" duration="99.00" routeLength="995.01" waitingTime="0.00" waitingCount="0" stopTime="0.00" timeLoss="63.03" rerouteNo="0" devices="tripinfo_southNorth.10 ssm_southNorth.10" vType="carCustom" speedFactor="0.88" vaporized=""/>
    <tripinfo id="westEastBottom0.7" depart="97.00" departLane="westJunction_0" departPos="5.10" departSpeed="13.13" departDelay="0.88" arrival="188.00" arrivalLane="junctionEast_1" arrivalPos="492.80" arrivalSpeed="27.26" duration="91.00" routeLength="994.90" waitingTime="0.00" waitingCount="0" stopTime="0.00" timeLoss="54.47" rerouteNo="0" devices="tripinfo_westEastBottom0.7 ssm_westEastBottom0.7" vType="carCustom" speedFactor="0.97" vaporized=""/>
    <tripinfo id="southEast.13" depart="100.00" departLane="southJunction_0" departPos="5.10" departSpeed="9.20" departDelay="0.98" arrival="190.00" arrivalLane="junctionEast_0" arrivalPos="492.80" arrivalSpeed="27.22" duration="90.00" routeLength="989.53" waitingTime="0.00" waitingCount="0" stopTime="0.00" timeLoss="53.35" rerouteNo="0" devices="tripinfo_southEast.13 ssm_southEast.13" vType="carCustom" speedFactor="1.06" vaporized=""/>
    <tripinfo id="southNorth.11" depart="89.00" departLane="southJunction_1" departPos="5.10" departSpeed="2.86" departDelay="8.26" arrival="191.00" arrivalLane="junctionNorth_0" arrivalPos="492.80" arrivalSpeed="26.94" duration="102.00" routeLength="995.01" waitingTime="0.00" waitingCount="0" stopTime="0.00" timeLoss="65.87" rerouteNo="0" devices="tripinfo_southNorth.11 ssm_southNorth.11" vType="carCustom" speedFactor="0.90" vaporized=""/>
    <tripinfo id="westEastBottom0.8" depart="100.00" departLane="westJunction_0" departPos="5.10" departSpeed="8.99" departDelay="0.06" arrival="195.00" arrivalLane="junctionEast_1" arrivalPos="492.80" arrivalSpeed="27.65" duration="95.00" routeLength="994.90" waitingTime="1.00" waitingCount="1" stopTime="0.00" timeLoss="58.71" rerouteNo="0" devices="tripinfo_westEastBottom0.8 ssm_westEastBottom0.8" vType="carCustom" speedFactor="1.10" vaporized=""/>
    <tripinfo id="southEast.14" depart="102.00" departLane="southJunction_0" departPos="5.10" departSpeed="12.62" departDelay="0.10" arrival="198.00" arrivalLane="junctionEast_0" arrivalPos="492.80" arrivalSpeed="26.72" duration="96.00" routeLength="989.53" waitingTime="2.00" waitingCount="1" stopTime="0.00" timeLoss="59.16" rerouteNo="0" devices="tripinfo_southEast.14 ssm_southEast.14" vType="carCustom" speedFactor="1.07" vaporized=""/>
    <tripinfo id="southNorth.12" depart="94.00" departLane="southJunction_1" departPos="5.10" departSpeed="3.14" departDelay="11.20" arrival="200.00" arrivalLane="junctionNorth_0" arrivalPos="492.80" arrivalSpeed="27.23" duration="106.00" routeLength="995.01" waitingTime="0.00" waitingCount="0" stopTime="0.00" timeLoss="69.37" rerouteNo="0" devices="tripinfo_southNorth.12 ssm_southNorth.12" vType="carCustom" speedFactor="0.94" vaporized=""/>
    <tripinfo id="westEastTop.13" depart="80.00" departLane="westJunction_1" departPos="5.10" departSpeed="5.53" departDelay="0.27" arrival="202.00" arrivalLane="junctionEast_1" arrivalPos="492.80" arrivalSpeed="27.14" duration="122.00" routeLength="994.90" waitingTime="5.00" waitingCount="2" stopTime="0.00" timeLoss="86.00" rerouteNo="0" devices="tripinfo_westEastTop.13 ssm_westEastTop.13" vType="carCustom" speedFactor="0.89" vaporized=""/>
    <tripinfo id="westEastBottom0.9" depart="104.00" departLane="westJunction_0" departPos="5.10" departSpeed="6.14" departDelay="0.52" arrival="205.00" arrivalLane="junctionEast_0" arrivalPos="492.80" arrivalSpeed="26.83" duration="101.00" routeLength="994.90" waitingTime="1.00" waitingCount="1" stopTime="0.00" timeLoss="64.86" rerouteNo="0" devices="tripinfo_westEastBottom0.9 ssm_westEastBottom0.9" vType="carCustom" speedFactor="1.08" vaporized=""/>
    <tripinfo id="southNorth.13" depart="99.00" departLane="southJunction_1" departPos="5.10" departSpeed="3.10" departDelay="1.10" arrival="209.00" arrivalLane="junctionNorth_0" arrivalPos="492.80" arrivalSpeed="27.40" duration="110.00" routeLength="995.01" waitingTime="1.00" waitingCount="1" stopTime="0.00" timeLoss="73.60" rerouteNo="0" devices="tripinfo_southNorth.13 ssm_southNorth.13" vType="carCustom" speedFactor="1.06" vaporized=""/>
    <tripinfo id="westEastTop.14" depart="94.00" departLane="westJunction_1" departPos="5.10" departSpeed="6.93" departDelay="0.70" arrival="210.00" arrivalLane="junctionEast_1" arrivalPos="492.80" arrivalSpeed="26.99" duration="116.00" routeLength="994.90" waitingTime="7.00" waitingCount="2" stopTime="0.00" timeLoss="79.37" rerouteNo="0" devices="tripinfo_westEastTop.14 ssm_westEastTop.14" vType="carCustom" speedFactor="1.00" vaporized=""/>
    <tripinfo id="southEast.15" depart="139.00" departLane="southJunction_0" departPos="5.10" departSpeed="9.64" departDelay="0.20" arrival="212.00" arrivalLane="junctionEast_0" arrivalPos="492.80" arrivalSpeed="27.11" duration="73.00" routeLength="989.53" waitingTime="0.00" waitingCount="0" stopTime="0.00" timeLoss="35.78" rerouteNo="0" devices="tripinfo_southEast.15 ssm_southEast.15" vType="carCustom" speedFactor="0.81" vaporized=""/>
    <tripinfo id="westEastBottom0.10" depart="107.00" departLane="westJunction_0" departPos="5.10" departSpeed="4.73" departDelay="1.57" arrival="217.00" arrivalLane="junctionEast_1" arrivalPos="492.80" arrivalSpeed="26.70" duration="110.00" routeLength="994.90" waitingTime="2.00" waitingCount="1" stopTime="0.00" timeLoss="73.82" rerouteNo="0" devices="tripinfo_westEastBottom0.10 ssm_westEastBottom0.10" vType="carCustom" speedFactor="1.10" vaporized=""/>
    <tripinfo id="southNorth.14" depart="105.00" departLane="southJunction_1" departPos="5.10" departSpeed="2.62" departDelay="0.02" arrival="219.00" arrivalLane="junctionNorth_0" arrivalPos="492.80" arrivalSpeed="27.17" duration="114.00" routeLength="995.01" waitingTime="3.00" waitingCount="1" stopTime="0.00" timeLoss="77.33" rerouteNo="0" devices="tripinfo_southNorth.14 ssm_southNorth.14" vType="carCustom" speedFactor="1.08" vaporized=""/>
    <tripinfo id="southEast.16" depart="141.00" departLane="southJunction_0" departPos="5.10" departSpeed="14.68" departDelay="1.33" arrival="219.00" arrivalLane="junctionEast_0" arrivalPos="492.80" arrivalSpeed="27.51" duration="78.00" routeLength="989.53" waitingTime="0.00" waitingCount="0" stopTime="0.00" timeLoss="41.82" rerouteNo="0" devices="tripinfo_southEast.16 ssm_southEast.16" vType="carCustom" speedFactor="1.11" vaporized=""/>
    <tripinfo id="westEastTop.15" depart="96.00" departLane="westJunction_1" departPos="5.10" departSpeed="8.63" departDelay="1.97" arrival="224.00" arrivalLane="junctionEast_1" arrivalPos="492.80" arrivalSpeed="26.87" duration="128.00" routeLength="994.90" waitingTime="6.00" waitingCount="2" stopTime="0.00" timeLoss="91.91" rerouteNo="0" devices="tripinfo_westEastTop.15 ssm_westEastTop.15" vType="carCustom" speedFactor="1.10" vaporized=""/>
    <tripinfo id="westEastBottom0.11" depart="111.00" departLane="westJunction_0" departPos="5.10" departSpeed="4.61" departDelay="3.01" arrival="226.00" arrivalLane="junctionEast_0" arrivalPos="492.80" arrivalSpeed="27.67" duration="115.00" routeLength="994.90" waitingTime="2.00" waitingCount="1" stopTime="0.00" timeLoss="78.97" rerouteNo="0" devices="tripinfo_westEastBottom0.11 ssm_westEastBottom0.11" vType="carCustom" speedFactor="1.03" vaporized=""/>
    <tripinfo id="southNorth.15" depart="110.00" departLane="southJunction_1" departPos="5.10" departSpeed="2.93" departDelay="1.47" arrival="228.00" arrivalLane="junctionNorth_0" arrivalPos="492.80" arrivalSpeed="27.44" duration="118.00" routeLength="995.01" waitingTime="4.00" waitingCount="1" stopTime="0.00" timeLoss="82.04" rerouteNo="0" devices="tripinfo_southNorth.15 ssm_southNorth.15" vType="carCustom" speedFactor="1.05" vaporized=""/>
    <tripinfo id="westEastTop.16" depart="111.00" departLane="westJunction_1" departPos="5.10" departSpeed="7.88" departDelay="0.87" arrival="231.00" arrivalLane="junctionEast_1" arrivalPos="492.80" arrivalSpeed="27.23" duration="120.00" routeLength="994.90" waitingTime="1.00" waitingCount="1" stopTime="0.00" timeLoss="84.06" rerouteNo="0" devices="tripinfo_westEastTop.16 ssm_westEastTop.16" vType="carCustom" speedFactor="0.89" vaporized=""/>
    <tripinfo id="southEast.17" depart="164.00" departLane="southJunction_0" departPos="5.10" departSpeed="13.50" departDelay="0.88" arrival="233.00" arrivalLane="junctionEast_0" arrivalPos="492.80" arrivalSpeed="27.68" duration="69.00" routeLength="989.53" waitingTime="0.00" waitingCount="0" stopTime="0.00" timeLoss="31.41" rerouteNo="0" devices="tripinfo_southEast.17 ssm_southEast.17" vType="carCustom" speedFactor="1.02" vaporized=""/>