<?xml version="1.0" encoding="UTF-8"?>

<!-- generated on 2025-04-29 08:10:58 by Eclipse SUMO sumo Version 1.20.0
<configuration xmlns:xsi="http://www.w3.org/2001/XMLSchema-instance" xsi:noNamespaceSchemaLocation="http://sumo.dlr.de/xsd/sumoConfiguration.xsd">

    <input>
        <net-file value="nets/2lane_unprotected_right/2lane_unprotected_right.net.xml"/>
        <route-files value="nets/2lane_unprotected_right/2lane_unprotected_right.rou.xml"/>
    </input>

    <output>
        <tripinfo-output value="traces/transs50f0.5_s50_f1_random/0145_tripinfo.xml"/>
        <collision-output value="traces/transs50f0.5_s50_f1_random/0145_collisions.xml"/>
        <statistic-output value="traces/transs50f0.5_s50_f1_random/0145_statistics.xml"/>
    </output>

    <processing>
        <collision.action value="teleport"/>
        <collision.check-junctions value="true"/>
        <time-to-teleport value="-1"/>
        <waiting-time-memory value="1000"/>
        <max-depart-delay value="-1"/>
        <default.speeddev value="0.1"/>
    </processing>

    <report>
        <no-warnings value="true"/>
    </report>

    <ssm_device>
        <device.ssm.probability value="1.0"/>
        <device.ssm.measures value="BR"/>
        <device.ssm.file value="/Users/finn/Code/CausalKnowledgeTransfer-4-SafeRL/traces/transs50f0.5_s50_f1_random/0145_ssm.xml"/>
    </ssm_device>

    <traci_server>
        <remote-port value="64198"/>
    </traci_server>

    <random_number>
        <random value="true"/>
    </random_number>

</configuration>
-->

<tripinfos xmlns:xsi="http://www.w3.org/2001/XMLSchema-instance" xsi:noNamespaceSchemaLocation="http://sumo.dlr.de/xsd/tripinfo_file.xsd">
    <tripinfo id="westEastTop.0" depart="7.00" departLane="westJunction_1" departPos="5.10" departSpeed="17.51" departDelay="0.86" arrival="45.00" arrivalLane="junctionEast_1" arrivalPos="492.80" arrivalSpeed="27.46" duration="38.00" routeLength="994.90" waitingTime="0.00" waitingCount="0" stopTime="0.00" timeLoss="1.52" rerouteNo="0" devices="tripinfo_westEastTop.0 ssm_westEastTop.0" vType="carCustom" speedFactor="0.96" vaporized=""/>
    <tripinfo id="westEastTop.1" depart="11.00" departLane="westJunction_1" departPos="5.10" departSpeed="25.57" departDelay="4.81" arrival="61.00" arrivalLane="junctionEast_1" arrivalPos="492.80" arrivalSpeed="27.25" duration="50.00" routeLength="994.90" waitingTime="0.00" waitingCount="0" stopTime="0.00" timeLoss="13.84" rerouteNo="0" devices="tripinfo_westEastTop.1 ssm_westEastTop.1" vType="carCustom" speedFactor="1.02" vaporized=""/>
    <tripinfo id="southNorth.0" depart="17.00" departLane="southJunction_1" departPos="5.10" departSpeed="17.51" departDelay="0.39" arrival="64.00" arrivalLane="junctionNorth_0" arrivalPos="492.80" arrivalSpeed="27.25" duration="47.00" routeLength="995.01" waitingTime="2.00" waitingCount="1" stopTime="0.00" timeLoss="10.41" rerouteNo="0" devices="tripinfo_southNorth.0 ssm_southNorth.0" vType="carCustom" speedFactor="0.87" vaporized=""/>
    <tripinfo id="westEastBottom0.0" depart="20.00" departLane="westJunction_0" departPos="5.10" departSpeed="17.51" departDelay="0.09" arrival="73.00" arrivalLane="junctionEast_1" arrivalPos="492.80" arrivalSpeed="26.99" duration="53.00" routeLength="994.90" waitingTime="0.00" waitingCount="0" stopTime="0.00" timeLoss="16.81" rerouteNo="0" devices="tripinfo_westEastBottom0.0 ssm_westEastBottom0.0" vType="carCustom" speedFactor="0.94" vaporized=""/>
    <tripinfo id="westEastBottom0.1" depart="24.00" departLane="westJunction_0" departPos="5.10" departSpeed="19.43" departDelay="1.16" arrival="85.00" arrivalLane="junctionEast_1" arrivalPos="492.80" arrivalSpeed="27.20" duration="61.00" routeLength="994.90" waitingTime="0.00" waitingCount="0" stopTime="0.00" timeLoss="24.91" rerouteNo="0" devices="tripinfo_westEastBottom0.1 ssm_westEastBottom0.1" vType="carCustom" speedFactor="0.97" vaporized=""/>
    <tripinfo id="southEast.0" depart="31.00" departLane="southJunction_0" departPos="5.10" departSpeed="17.51" departDelay="0.77" arrival="94.00" arrivalLane="junctionEast_1" arrivalPos="492.80" arrivalSpeed="27.35" duration="63.00" routeLength="989.53" waitingTime="3.00" waitingCount="1" stopTime="0.00" timeLoss="25.71" rerouteNo="0" devices="tripinfo_southEast.0 ssm_southEast.0" vType="carCustom" speedFactor="1.10" vaporized=""/>
    <tripinfo id="southNorth.1" depart="38.00" departLane="southJunction_1" departPos="5.10" departSpeed="0.00" departDelay="15.17" arrival="97.00" arrivalLane="junctionNorth_0" arrivalPos="492.80" arrivalSpeed="26.86" duration="59.00" routeLength="995.01" waitingTime="2.00" waitingCount="1" stopTime="0.00" timeLoss="22.95" rerouteNo="0" devices="tripinfo_southNorth.1 ssm_southNorth.1" vType="carCustom" speedFactor="1.12" vaporized=""/>
    <tripinfo id="westEastTop.2" depart="16.00" departLane="westJunction_1" departPos="5.10" departSpeed="22.37" departDelay="0.76" arrival="104.00" arrivalLane="junctionEast_1" arrivalPos="492.80" arrivalSpeed="27.11" duration="88.00" routeLength="994.90" waitingTime="4.00" waitingCount="1" stopTime="0.00" timeLoss="51.30" rerouteNo="0" devices="tripinfo_westEastTop.2 ssm_westEastTop.2" vType="carCustom" speedFactor="0.91" vaporized=""/>
    <tripinfo id="westEastBottom0.3" depart="32.00" departLane="westJunction_0" departPos="5.10" departSpeed="14.31" departDelay="0.57" arrival="109.00" arrivalLane="junctionEast_1" arrivalPos="492.80" arrivalSpeed="24.73" duration="77.00" routeLength="994.90" waitingTime="5.00" waitingCount="1" stopTime="0.00" timeLoss="40.44" rerouteNo="0" devices="tripinfo_westEastBottom0.3 ssm_westEastBottom0.3" vType="carCustom" speedFactor="0.96" vaporized=""/>
    <tripinfo id="southNorth.2" depart="42.00" departLane="southJunction_1" departPos="5.10" departSpeed="8.67" departDelay="10.42" arrival="114.00" arrivalLane="junctionNorth_0" arrivalPos="492.80" arrivalSpeed="27.05" duration="72.00" routeLength="995.01" waitingTime="0.00" waitingCount="0" stopTime="0.00" timeLoss="35.23" rerouteNo="0" devices="tripinfo_southNorth.2 ssm_southNorth.2" vType="carCustom" speedFactor="0.92" vaporized=""/>
    <tripinfo id="westEastBottom0.2" depart="28.00" departLane="westJunction_0" departPos="5.10" departSpeed="16.87" departDelay="0.97" arrival="119.00" arrivalLane="junctionEast_1" arrivalPos="492.80" arrivalSpeed="26.91" duration="91.00" routeLength="994.90" waitingTime="2.00" waitingCount="1" stopTime="0.00" timeLoss="54.96" rerouteNo="0" devices="tripinfo_westEastBottom0.2 ssm_westEastBottom0.2" vType="carCustom" speedFactor="0.94" vaporized=""/>
    <tripinfo id="southEast.1" depart="49.00" departLane="southJunction_0" departPos="5.10" departSpeed="15.54" departDelay="0.15" arrival="122.00" arrivalLane="junctionEast_1" arrivalPos="492.80" arrivalSpeed="22.92" duration="73.00" routeLength="989.53" waitingTime="0.00" waitingCount="0" stopTime="0.00" timeLoss="36.49" rerouteNo="0" devices="tripinfo_southEast.1 ssm_southEast.1" vType="carCustom" speedFactor="1.05" vaporized=""/>
    <tripinfo id="westEastBottom0.4" depart="37.00" departLane="westJunction_0" departPos="5.10" departSpeed="11.16" departDelay="0.81" arrival="131.00" arrivalLane="junctionEast_1" arrivalPos="492.80" arrivalSpeed="27.00" duration="94.00" routeLength="994.90" waitingTime="0.00" waitingCount="0" stopTime="0.00" timeLoss="57.65" rerouteNo="0" devices="tripinfo_westEastBottom0.4 ssm_westEastBottom0.4" vType="carCustom" speedFactor="1.00" vaporized=""/>
    <tripinfo id="southNorth.3" depart="44.00" departLane="southJunction_1" departPos="5.10" departSpeed="7.39" departDelay="9.67" arrival="133.00" arrivalLane="junctionNorth_0" arrivalPos="492.80" arrivalSpeed="27.24" duration="89.00" routeLength="995.01" waitingTime="4.00" waitingCount="1" stopTime="0.00" timeLoss="52.71" rerouteNo="0" devices="tripinfo_southNorth.3 ssm_southNorth.3" vType="carCustom" speedFactor="1.05" vaporized=""/>
    <tripinfo id="westEastTop.3" depart="28.00" departLane="westJunction_1" departPos="5.10" departSpeed="14.69" departDelay="0.67" arrival="139.00" arrivalLane="junctionEast_1" arrivalPos="492.80" arrivalSpeed="27.13" duration="111.00" routeLength="994.90" waitingTime="2.00" waitingCount="1" stopTime="0.00" timeLoss="74.93" rerouteNo="0" devices="tripinfo_westEastTop.3 ssm_westEastTop.3" vType="carCustom" speedFactor="0.95" vaporized=""/>
    <tripinfo id="southEast.2" depart="53.00" departLane="southJunction_0" departPos="5.10" departSpeed="14.63" departDelay="0.62" arrival="143.00" arrivalLane="junctionEast_1" arrivalPos="492.80" arrivalSpeed="26.39" duration="90.00" routeLength="989.53" waitingTime="0.00" waitingCount="0" stopTime="0.00" timeLoss="53.46" rerouteNo="0" devices="tripinfo_southEast.2 ssm_southEast.2" vType="carCustom" speedFactor="0.86" vaporized=""/>
    <tripinfo id="southNorth.4" depart="47.00" departLane="southJunction_1" departPos="5.10" departSpeed="5.47" departDelay="3.74" arrival="147.00" arrivalLane="junctionNorth_0" arrivalPos="492.80" arrivalSpeed="27.67" duration="100.00" routeLength="995.01" waitingTime="0.00" waitingCount="0" stopTime="0.00" timeLoss="63.92" rerouteNo="0" devices="tripinfo_southNorth.4 ssm_southNorth.4" vType="carCustom" speedFactor="1.01" vaporized=""/>
    <tripinfo id="westEastTop.4" depart="33.00" departLane="westJunction_1" departPos="5.10" departSpeed="12.26" departDelay="0.61" arrival="152.00" arrivalLane="junctionEast_1" arrivalPos="492.80" arrivalSpeed="26.81" duration="119.00" routeLength="994.90" waitingTime="0.00" waitingCount="0" stopTime="0.00" timeLoss="83.17" rerouteNo="0" devices="tripinfo_westEastTop.4 ssm_westEastTop.4" vType="carCustom" speedFactor="1.02" vaporized=""/>
    <tripinfo id="westEastBottom0.6" depart="58.00" departLane="westJunction_0" departPos="5.10" departSpeed="8.48" departDelay="0.13" arrival="157.00" arrivalLane="junctionEast_1" arrivalPos="492.80" arrivalSpeed="25.25" duration="99.00" routeLength="994.90" waitingTime="0.00" waitingCount="0" stopTime="0.00" timeLoss="62.91" rerouteNo="0" devices="tripinfo_westEastBottom0.6 ssm_westEastBottom0.6" vType="carCustom" speedFactor="0.83" vaporized=""/>
    <tripinfo id="southNorth.5" depart="66.00" departLane="southJunction_1" departPos="5.10" departSpeed="4.91" departDelay="0.17" arrival="164.00" arrivalLane="junctionNorth_0" arrivalPos="492.80" arrivalSpeed="27.16" duration="98.00" routeLength="995.01" waitingTime="4.00" waitingCount="1" stopTime="0.00" timeLoss="61.59" rerouteNo="0" devices="tripinfo_southNorth.5 ssm_southNorth.5" vType="carCustom" speedFactor="0.94" vaporized=""/>
    <tripinfo id="westEastBottom0.5" depart="55.00" departLane="westJunction_0" departPos="5.10" departSpeed="7.25" departDelay="0.42" arrival="166.00" arrivalLane="junctionEast_1" arrivalPos="492.80" arrivalSpeed="26.86" duration="111.00" routeLength="994.90" waitingTime="3.00" waitingCount="1" stopTime="0.00" timeLoss="74.52" rerouteNo="0" devices="tripinfo_westEastBottom0.5 ssm_westEastBottom0.5" vType="carCustom" speedFactor="0.96" vaporized=""/>
    <tripinfo id="westEastTop.5" depart="38.00" departLane="westJunction_1" departPos="5.10" departSpeed="9.06" departDelay="0.39" arrival="174.00" arrivalLane="junctionEast_1" arrivalPos="492.80" arrivalSpeed="27.64" duration="136.00" routeLength="994.90" waitingTime="0.00" waitingCount="0" stopTime="0.00" timeLoss="99.77" rerouteNo="0" devices="tripinfo_westEastTop.5 ssm_westEastTop.5" vType="carCustom" speedFactor="0.95" vaporized=""/>
    <tripinfo id="westEastBottom0.7" depart="77.00" departLane="westJunction_0" departPos="5.10" departSpeed="5.91" departDelay="0.26" arrival="177.00" arrivalLane="junctionEast_1" arrivalPos="492.80" arrivalSpeed="22.51" duration="100.00" routeLength="994.90" waitingTime="3.00" waitingCount="1" stopTime="0.00" timeLoss="63.60" rerouteNo="0" devices="tripinfo_westEastBottom0.7 ssm_westEastBottom0.7" vType="carCustom" speedFactor="1.02" vaporized=""/>
    <tripinfo id="southNorth.6" depart="69.00" departLane="southJunction_1" departPos="5.10" departSpeed="5.18" departDelay="2.84" arrival="178.00" arrivalLane="junctionNorth_0" arrivalPos="492.80" arrivalSpeed="26.62" duration="109.00" routeLength="995.01" waitingTime="0.00" waitingCount="0" stopTime="0.00" timeLoss="72.40" rerouteNo="0" devices="tripinfo_southNorth.6 ssm_southNorth.6" vType="carCustom" speedFactor="1.13" vaporized=""/>
    <tripinfo id="southEast.3" depart="70.00" departLane="southJunction_0" departPos="5.10" departSpeed="8.05" departDelay="0.67" arrival="186.00" arrivalLane="junctionEast_1" arrivalPos="492.80" arrivalSpeed="27.38" duration="116.00" routeLength="989.53" waitingTime="3.00" waitingCount="1" stopTime="0.00" timeLoss="79.04" rerouteNo="0" devices="tripinfo_southEast.3 ssm_southEast.3" vType="carCustom" speedFactor="0.93" vaporized=""/>
    <tripinfo id="southNorth.7" depart="74.00" departLane="southJunction_1" departPos="5.10" departSpeed="2.53" departDelay="0.88" arrival="191.00" arrivalLane="junctionNorth_0" arrivalPos="492.80" arrivalSpeed="26.99" duration="117.00" routeLength="995.01" waitingTime="0.00" waitingCount="0" stopTime="0.00" timeLoss="81.05" rerouteNo="0" devices="tripinfo_southNorth.7 ssm_southNorth.7" vType="carCustom" speedFactor="1.08" vaporized=""/>
    <tripinfo id="westEastBottom0.8" depart="92.00" departLane="westJunction_0" departPos="5.10" departSpeed="7.60" departDelay="0.05" arrival="194.00" arrivalLane="junctionEast_0" arrivalPos="492.80" arrivalSpeed="27.66" duration="102.00" routeLength="994.90" waitingTime="0.00" waitingCount="0" stopTime="0.00" timeLoss="65.86" rerouteNo="0" devices="tripinfo_westEastBottom0.8 ssm_westEastBottom0.8" vType="carCustom" speedFactor="0.91" vaporized=""/>
    <tripinfo id="westEastTop.6" depart="42.00" departLane="westJunction_1" departPos="5.10" departSpeed="6.53" departDelay="0.06" arrival="195.00" arrivalLane="junctionEast_0" arrivalPos="492.80" arrivalSpeed="24.90" duration="153.00" routeLength="994.90" waitingTime="0.00" waitingCount="0" stopTime="0.00" timeLoss="116.41" rerouteNo="0" devices="tripinfo_westEastTop.6 ssm_westEastTop.6" vType="carCustom" speedFactor="1.13" vaporized=""/>
    <tripinfo id="westEastTop.7" depart="49.00" departLane="westJunction_1" departPos="5.10" departSpeed="3.62" departDelay="0.08" arrival="204.00" arrivalLane="junctionEast_1" arrivalPos="492.80" arrivalSpeed="27.63" duration="155.00" routeLength="994.90" waitingTime="0.00" waitingCount="0" stopTime="0.00" timeLoss="118.41" rerouteNo="0" devices="tripinfo_westEastTop.7 ssm_westEastTop.7" vType="carCustom" speedFactor="0.96" vaporized=""/>
    <tripinfo id="southEast.4" depart="94.00" departLane="southJunction_0" departPos="5.10" departSpeed="9.11" departDelay="0.06" arrival="204.00" arrivalLane="junctionEast_0" arrivalPos="492.80" arrivalSpeed="27.76" duration="110.00" routeLength="989.53" waitingTime="4.00" waitingCount="1" stopTime="0.00" timeLoss="72.92" rerouteNo="0" devices="tripinfo_southEast.4 ssm_southEast.4" vType="carCustom" speedFactor="0.91" vaporized=""/>
    <tripinfo id="southNorth.8" depart="83.00" departLane="southJunction_1" departPos="5.10" departSpeed="2.06" departDelay="0.44" arrival="206.00" arrivalLane="junctionNorth_0" arrivalPos="492.80" arrivalSpeed="26.89" duration="123.00" routeLength="995.01" waitingTime="4.00" waitingCount="1" stopTime="0.00" timeLoss="86.54" rerouteNo="0" devices="tripinfo_southNorth.8 ssm_southNorth.8" vType="carCustom" speedFactor="1.00" vaporized=""/>
    <tripinfo id="westEastTop.8" depart="53.00" departLane="westJunction_1" departPos="5.10" departSpeed="3.15" departDelay="2.69" arrival="214.00" arrivalLane="junctionEast_1" arrivalPos="492.80" arrivalSpeed="27.33" duration="161.00" routeLength="994.90" waitingTime="0.00" waitingCount="0" stopTime="0.00" timeLoss="124.85" rerouteNo="0" devices="tripinfo_westEastTop.8 ssm_westEastTop.8" vType="carCustom" speedFactor="1.05" vaporized=""/>
    <tripinfo id="southEast.5" depart="123.00" departLane="southJunction_0" departPos="5.10" departSpeed="10.06" departDelay="0.95" arrival="214.00" arrivalLane="junctionEast_0" arrivalPos="492.80" arrivalSpeed="27.09" duration="91.00" routeLength="989.53" waitingTime="0.00" waitingCount="0" stopTime="0.00" timeLoss="53.30" rerouteNo="0" devices="tripinfo_southEast.5 ssm_southEast.5" vType="carCustom" speedFactor="1.10" vaporized=""/>
    <tripinfo id="southNorth.9" depart="88.00" departLane="southJunction_1" departPos="5.10" departSpeed="2.41" departDelay="3.34" arrival="220.00" arrivalLane="junctionNorth_0" arrivalPos="492.80" arrivalSpeed="27.57" duration="132.00" routeLength="995.01" waitingTime="0.00" waitingCount="0" stopTime="0.00" timeLoss="95.33" rerouteNo="0" devices="tripinfo_southNorth.9 ssm_southNorth.9" vType="carCustom" speedFactor="0.90" vaporized=""/>
    <tripinfo id="westEastTop.9" depart="58.00" departLane="westJunction_1" departPos="5.10" departSpeed="2.18" departDelay="1.42" arrival="224.00" arrivalLane="junctionEast_1" arrivalPos="492.80" arrivalSpeed="27.62" duration="166.00" routeLength="994.90" waitingTime="4.00" waitingCount="1" stopTime="0.00" timeLoss="130.00" rerouteNo="0" devices="tripinfo_westEastTop.9 ssm_westEastTop.9" vType="carCustom" speedFactor="0.88" vaporized=""/>
    <tripinfo id="westEastBottom0.9" depart="96.00" departLane="westJunction_0" departPos="5.10" departSpeed="7.09" departDelay="0.54" arrival="224.00" arrivalLane="junctionEast_0" arrivalPos="492.80" arrivalSpeed="27.33" duration="128.00" routeLength="994.90" waitingTime="3.00" waitingCount="1" stopTime="0.00" timeLoss="91.88" rerouteNo="0" devices="tripinfo_westEastBottom0.9 ssm_westEastBottom0.9" vType="carCustom" speedFactor="1.08" vaporized=""/>
    <tripinfo id="southNorth.10" depart="94.00" departLane="southJunction_1" departPos="5.10" departSpeed="1.44" departDelay="0.58" arrival="232.00" arrivalLane="junctionNorth_0" arrivalPos="492.80" arrivalSpeed="26.82" duration="138.00" routeLength="995.01" waitingTime="0.00" waitingCount="0" stopTime="0.00" timeLoss="102.19" rerouteNo="0" devices="tripinfo_southNorth.10 ssm_southNorth.10" vType="carCustom" speedFactor="1.02" vaporized=""/>
    <tripinfo id="westEastTop.10" depart="66.00" departLane="westJunction_1" departPos="5.10" departSpeed="1.51" departDelay="4.36" arrival="234.00" arrivalLane="junctionEast_1" arrivalPos="492.80" arrivalSpeed="27.45" duration="168.00" routeLength="994.90" waitingTime="0.00" waitingCount="0" stopTime="0.00" timeLoss="132.06" rerouteNo="0" devices="tripinfo_westEastTop.10 ssm_westEastTop.10" vType="carCustom" speedFactor="0.98" vaporized=""/>
    <tripinfo id="westEastBottom0.10" depart="99.00" departLane="westJunction_0" departPos="5.10" departSpeed="5.17" departDelay="1.78" arrival="235.00" arrivalLane="junctionEast_0" arrivalPos="492.80" arrivalSpeed="26.71" duration="136.00" routeLength="994.90" waitingTime="0.00" waitingCount="0" stopTime="0.00" timeLoss="99.39" rerouteNo="0" devices="tripinfo_westEastBottom0.10 ssm_westEastBottom0.10" vType="carCustom" speedFactor="0.91" vaporized=""/>
    <tripinfo id="westEastTop.11" depart="72.00" departLane="westJunction_1" departPos="5.10" departSpeed="1.44" departDelay="7.52" arrival="245.00" arrivalLane="junctionEast_1" arrivalPos="492.80" arrivalSpeed="27.31" duration="173.00" routeLength="994.90" waitingTime="0.00" waitingCount="0" stopTime="0.00" timeLoss="136.63" rerouteNo="0" devices="tripinfo_westEastTop.11 ssm_westEastTop.11" vType="carCustom" speedFactor="1.00" vaporized=""/>
    <tripinfo id="southNorth.11" depart="102.00" departLane="southJunction_1" departPos="5.10" departSpeed="1.79" departDelay="4.71" arrival="245.00" arrivalLane="junctionNorth_0" arrivalPos="492.80" arrivalSpeed="27.47" duration="143.00" routeLength="995.01" waitingTime="0.00" waitingCount="0" stopTime="0.00" timeLoss="106.86" rerouteNo="0" devices="tripinfo_southNorth.11 ssm_southNorth.11" vType="carCustom" speedFactor="0.78" vaporized=""/>
    <tripinfo id="southEast.6" depart="130.00" departLane="southJunction_0" departPos="5.10" departSpeed="12.61" departDelay="0.64" arrival="248.00" arrivalLane="junctionEast_1" arrivalPos="492.80" arrivalSpeed="22.33" duration="118.00" routeLength="989.53" waitingTime="1.00" waitingCount="1" stopTime="0.00" timeLoss="81.39" rerouteNo="0" devices="tripinfo_southEast.6 ssm_southEast.6" vType="carCustom" speedFactor="1.12" vaporized=""/>
    <tripinfo id="southEast.7" depart="140.00" departLane="southJunction_0" departPos="5.10" departSpeed="7.72" departDelay="0.98" arrival="256.00" arrivalLane="junctionEast_1" arrivalPos="492.80" arrivalSpeed="27.70" duration="116.00" routeLength="989.53" waitingTime="5.00" waitingCount="1" stopTime="0.00" timeLoss="79.06" rerouteNo="0" devices="tripinfo_southEast.7 ssm_southEast.7" vType="carCustom" speedFactor="1.06" vaporized=""/>
    <tripinfo id="southNorth.12" depart="109.00" departLane="southJunction_1" departPos="5.10" departSpeed="1.93" departDelay="11.61" arrival="258.00" arrivalLane="junctionNorth_0" arrivalPos="492.80" arrivalSpeed="26.91" duration="149.00" routeLength="995.01" waitingTime="5.00" waitingCount="1" stopTime="0.00" timeLoss="113.04" rerouteNo="0" devices="tripinfo_southNorth.12 ssm_southNorth.12" vType="carCustom" speedFactor="1.04" vaporized=""/>
    <tripinfo id="southEast.8" depart="149.00" departLane="southJunction_0" departPos="5.10" departSpeed="6.95" departDelay="0.83" arrival="264.00" arrivalLane="junctionEast_0" arrivalPos="492.80" arrivalSpeed="26.79" duration="115.00" routeLength="989.53" waitingTime="0.00" waitingCount="0" stopTime="0.00" timeLoss="78.43" rerouteNo="0" devices="tripinfo_southEast.8 ssm_southEast.8" vType="carCustom" speedFactor="1.15" vaporized=""/>
    <tripinfo id="westEastBottom0.11" depart="102.00" departLane="westJunction_0" departPos="5.10" departSpeed="3.25" departDelay="2.40" arrival="265.00" arrivalLane="junctionEast_1" arrivalPos="492.80" arrivalSpeed="26.55" duration="163.00" routeLength="994.90" waitingTime="3.00" waitingCount="1" stopTime="0.00" timeLoss="126.24" rerouteNo="0" devices="tripinfo_westEastBottom0.11 ssm_westEastBottom0.11" vType="carCustom" speedFactor="0.95" vaporized=""/>
    <tripinfo id="southNorth.13" depart="116.00" departLane="southJunction_1" departPos="5.10" departSpeed="1.69" departDelay="9.72" arrival="271.00" arrivalLane="junctionNorth_0" arrivalPos="492.80" arrivalSpeed="27.02" duration="155.00" routeLength="995.01" waitingTime="0.00" waitingCount="0" stopTime="0.00" timeLoss="118.34" rerouteNo="0" devices="tripinfo_southNorth.13 ssm_southNorth.13" vType="carCustom" speedFactor="1.02" vaporized=""/>
    <tripinfo id="westEastTop.12" depart="80.00" departLane="westJunction_1" departPos="5.10" departSpeed="1.53" departDelay="14.85" arrival="273.00" arrivalLane="junctionEast_0" arrivalPos="492.80" arrivalSpeed="26.53" duration="193.00" routeLength="994.90" waitingTime="0.00" waitingCount="0" stopTime="0.00" timeLoss="156.93" rerouteNo="0" devices="tripinfo_westEastTop.12 ssm_westEastTop.12" vType="carCustom" speedFactor="0.96" vaporized=""/>
    <tripinfo id="westEastBottom0.12" depart="108.00" departLane="westJunction_0" departPos="5.10" departSpeed="1.96" departDelay="6.31" arrival="275.00" arrivalLane="junctionEast_1" arrivalPos="492.80" arrivalSpeed="27.31" duration="167.00" routeLength="994.90" waitingTime="0.00" waitingCount="0" stopTime="0.00" timeLoss="131.04" rerouteNo="0" devices="tripinfo_westEastBottom0.12 ssm_westEastBottom0.12" vType="carCustom" speedFactor="1.07" vaporized=""/>
    <tripinfo id="southNorth.14" depart="124.00" departLane="southJunction_1" departPos="5.10" departSpeed="1.85" departDelay="13.18" arrival="283.00" arrivalLane="junctionNorth_0" arrivalPos="492.80" arrivalSpeed="27.49" duration="159.00" routeLength="995.01" waitingTime="0.00" waitingCount="0" stopTime="0.00" timeLoss="123.16" rerouteNo="0" devices="tripinfo_southNorth.14 ssm_southNorth.14" vType="carCustom" speedFactor="0.95" vaporized=""/>
    <tripinfo id="westEastBottom0.13" depart="119.00" departLane="westJunction_0" departPos="5.10" departSpeed="2.52" departDelay="0.22" arrival="283.00" arrivalLane="junctionEast_0" arrivalPos="492.80" arrivalSpeed="27.30" duration="164.00" routeLength="994.90" waitingTime="4.00" waitingCount="1" stopTime="0.00" timeLoss="127.45" rerouteNo="0" devices="tripinfo_westEastBottom0.13 ssm_westEastBottom0.13" vType="carCustom" speedFactor="0.97" vaporized=""/>
    <tripinfo id="westEastTop.13" depart="88.00" departLane="westJunction_1" departPos="5.10" departSpeed="1.54" departDelay="19.97" arrival="286.00" arrivalLane="junctionEast_1" arrivalPos="492.80" arrivalSpeed="27.04" duration="198.00" routeLength="994.90" waitingTime="0.00" waitingCount="0" stopTime="0.00" timeLoss="161.28" rerouteNo="0" devices="tripinfo_westEastTop.13 ssm_westEastTop.13" vType="carCustom" speedFactor="0.99" vaporized=""/>
    <tripinfo id="southNorth.15" depart="132.00" departLane="southJunction_1" departPos="5.10" departSpeed="1.22" departDelay="20.88" arrival="295.00" arrivalLane="junctionNorth_0" arrivalPos="492.80" arrivalSpeed="27.01" duration="163.00" routeLength="995.01" waitingTime="0.00" waitingCount="0" stopTime="0.00" timeLoss="127.10" rerouteNo="0" devices="tripinfo_southNorth.15 ssm_southNorth.15" vType="carCustom" speedFactor="1.08" vaporized=""/>
    <tripinfo id="westEastBottom0.14" depart="124.00" departLane="westJunction_0" departPos="5.10" departSpeed="2.58" departDelay="1.97" arrival="295.00" arrivalLane="junctionEast_1" arrivalPos="492.80" arrivalSpeed="26.88" duration="171.00" routeLength="994.90" waitingTime="0.00" waitingCount="0" stopTime="0.00" timeLoss="134.80" rerouteNo="0" devices="tripinfo_westEastBottom0.14 ssm_westEastBottom0.14" vType="carCustom" speedFactor="1.18" vaporized=""/>
    <tripinfo id="southEast.9" depart="152.00" departLane="southJunction_0" departPos="5.10" departSpeed="6.11" departDelay="1.54" arrival="301.00" arrivalLane="junctionEast_1" arrivalPos="492.80" arrivalSpeed="27.52" duration="149.00" routeLength="989.53" waitingTime="4.00" waitingCount="1" stopTime="0.00" timeLoss="111.66" rerouteNo="0" devices="tripinfo_southEast.9 ssm_southEast.9" vType="carCustom" speedFactor="0.95" vaporized=""/>
    <tripinfo id="southNorth.16" depart="141.00" departLane="southJunction_1" departPos="5.10" departSpeed="1.36" departDelay="2.18" arrival="307.00" arrivalLane="junctionNorth_0" arrivalPos="492.80" arrivalSpeed="27.06" duration="166.00" routeLength="995.01" waitingTime="0.00" waitingCount="0" stopTime="0.00" timeLoss="129.99" rerouteNo="0" devices="tripinfo_southNorth.16 ssm_southNorth.16" vType="carCustom" speedFactor="1.10" vaporized=""/>
    <tripinfo id="westEastTop.14" depart="96.00" departLane="westJunction_1" departPos="5.10" departSpeed="1.39" departDelay="25.74" arrival="308.00" arrivalLane="junctionEast_1" arrivalPos="492.80" arrivalSpeed="24.31" duration="212.00" routeLength="994.90" waitingTime="0.00" waitingCount="0" stopTime="0.00" timeLoss="175.77" rerouteNo="0" devices="tripinfo_westEastTop.14 ssm_westEastTop.14" vType="carCustom" speedFactor="1.06" vaporized=""/>
    <tripinfo id="southEast.10" depart="156.00" departLane="southJunction_0" departPos="5.10" departSpeed="3.62" departDelay="0.29" arrival="311.00" arrivalLane="junctionEast_1" arrivalPos="492.80" arrivalSpeed="24.01" duration="155.00" routeLength="989.53" waitingTime="0.00" waitingCount="0" stopTime="0.00" timeLoss="117.61" rerouteNo="0" devices="tripinfo_southEast.10 ssm_southEast.10" vType="carCustom" speedFactor="1.01" vaporized=""/>
    <tripinfo id="westEastTop.15" depart="105.00" departLane="westJunction_1" departPos="5.10" departSpeed="1.70" departDelay="26.96" arrival="319.00" arrivalLane="junctionEast_1" arrivalPos="492.80" arrivalSpeed="27.39" duration="214.00" routeLength="994.90" waitingTime="0.00" waitingCount="0" stopTime="0.00" timeLoss="177.27" rerouteNo="0" devices="tripinfo_westEastTop.15 ssm_westEastTop.15" vType="carCustom" speedFactor="0.98" vaporized=""/>
    <tripinfo id="southNorth.17" depart="149.00" departLane="southJunction_1" departPos="5.10" departSpeed="1.53" departDelay="7.59" arrival="319.00" arrivalLane="junctionNorth_0" arrivalPos="492.80" arrivalSpeed="27.42" duration="170.00" routeLength="995.01" waitingTime="0.00" waitingCount="0" stopTime="0.00" timeLoss="133.84" rerouteNo="0" devices="tripinfo_southNorth.17 ssm_southNorth.17" vType="carCustom" speedFactor="0.93" vaporized=""/>
    <tripinfo id="westEastTop.16" depart="112.00" departLane="westJunction_1" departPos="5.10" departSpeed="1.37" departDelay="32.90" arrival="326.00" arrivalLane="junctionEast_1" arrivalPos="492.80" arrivalSpeed="24.39" duration="214.00" routeLength="994.90" waitingTime="0.00" waitingCount="0" stopTime="0.00" timeLoss="178.03" rerouteNo="0" devices="tripinfo_westEastTop.16 ssm_westEastTop.16" vType="carCustom" speedFactor="0.87" vaporized=""/>
    <tripinfo id="southEast.11" depart="168.00" departLane="southJunction_0" departPos="5.10" departSpeed="3.12" departDelay="0.45" arrival="326.00" arrivalLane="junctionEast_0" arrivalPos="492.80" arrivalSpeed="25.35" duration="158.00" routeLength="989.53" waitingTime="0.00" waitingCount="0" stopTime="0.00" timeLoss="121.15" rerouteNo="0" devices="tripinfo_southEast.11 ssm_southEast.11" vType="carCustom" speedFactor="1.08" vaporized=""/>
    <tripinfo id="southNorth.18" depart="160.00" departLane="southJunction_1" departPos="5.10" departSpeed="1.54" departDelay="0.85" arrival="332.00" arrivalLane="junctionNorth_0" arrivalPos="492.80" arrivalSpeed="27.60" duration="172.00" routeLength="995.01" waitingTime="5.00" waitingCount="1" stopTime="0.00" timeLoss="135.45" rerouteNo="0" devices="tripinfo_southNorth.18 ssm_southNorth.18" vType="carCustom" speedFactor="0.79" vaporized=""/>