<?xml version="1.0" encoding="UTF-8"?>

<!-- generated on 2025-04-29 08:16:03 by Eclipse SUMO sumo Version 1.20.0
<configuration xmlns:xsi="http://www.w3.org/2001/XMLSchema-instance" xsi:noNamespaceSchemaLocation="http://sumo.dlr.de/xsd/sumoConfiguration.xsd">

    <input>
        <net-file value="nets/2lane_unprotected_right/2lane_unprotected_right.net.xml"/>
        <route-files value="nets/2lane_unprotected_right/2lane_unprotected_right.rou.xml"/>
    </input>

    <output>
        <tripinfo-output value="traces/transs50f0.5_s50_f1_random/0149_tripinfo.xml"/>
        <collision-output value="traces/transs50f0.5_s50_f1_random/0149_collisions.xml"/>
        <statistic-output value="traces/transs50f0.5_s50_f1_random/0149_statistics.xml"/>
    </output>

    <processing>
        <collision.action value="teleport"/>
        <collision.check-junctions value="true"/>
        <time-to-teleport value="-1"/>
        <waiting-time-memory value="1000"/>
        <max-depart-delay value="-1"/>
        <default.speeddev value="0.1"/>
    </processing>

    <report>
        <no-warnings value="true"/>
    </report>

    <ssm_device>
        <device.ssm.probability value="1.0"/>
        <device.ssm.measures value="BR"/>
        <device.ssm.file value="/Users/finn/Code/CausalKnowledgeTransfer-4-SafeRL/traces/transs50f0.5_s50_f1_random/0149_ssm.xml"/>
    </ssm_device>

    <traci_server>
        <remote-port value="64246"/>
    </traci_server>

    <random_number>
        <random value="true"/>
    </random_number>

</configuration>
-->

<tripinfos xmlns:xsi="http://www.w3.org/2001/XMLSchema-instance" xsi:noNamespaceSchemaLocation="http://sumo.dlr.de/xsd/tripinfo_file.xsd">
    <tripinfo id="southEast.0" depart="1.00" departLane="southJunction_0" departPos="5.10" departSpeed="13.89" departDelay="0.35" arrival="79.00" arrivalLane="junctionEast_0" arrivalPos="492.80" arrivalSpeed="12.99" duration="78.00" routeLength="989.53" waitingTime="0.00" waitingCount="0" stopTime="0.00" timeLoss="5.20" rerouteNo="0" devices="tripinfo_southEast.0 ssm_southEast.0" vType="carCustom" speedFactor="1.05" vaporized=""/>
    <tripinfo id="westEastTop.0" depart="3.00" departLane="westJunction_1" departPos="5.10" departSpeed="13.89" departDelay="0.88" arrival="79.00" arrivalLane="junctionEast_1" arrivalPos="492.80" arrivalSpeed="13.29" duration="76.00" routeLength="994.90" waitingTime="0.00" waitingCount="0" stopTime="0.00" timeLoss="4.00" rerouteNo="0" devices="tripinfo_westEastTop.0 ssm_westEastTop.0" vType="carCustom" speedFactor="0.91" vaporized=""/>
    <tripinfo id="westEastTop.1" depart="10.00" departLane="westJunction_1" departPos="5.10" departSpeed="13.59" departDelay="0.53" arrival="90.00" arrivalLane="junctionEast_0" arrivalPos="492.80" arrivalSpeed="13.24" duration="80.00" routeLength="994.90" waitingTime="0.00" waitingCount="0" stopTime="0.00" timeLoss="7.51" rerouteNo="0" devices="tripinfo_westEastTop.1 ssm_westEastTop.1" vType="carCustom" speedFactor="0.99" vaporized=""/>
    <tripinfo id="westEastTop.2" depart="12.00" departLane="westJunction_1" departPos="5.10" departSpeed="12.97" departDelay="0.88" arrival="92.00" arrivalLane="junctionEast_1" arrivalPos="492.80" arrivalSpeed="13.75" duration="80.00" routeLength="994.90" waitingTime="0.00" waitingCount="0" stopTime="0.00" timeLoss="7.77" rerouteNo="0" devices="tripinfo_westEastTop.2 ssm_westEastTop.2" vType="carCustom" speedFactor="1.06" vaporized=""/>
    <tripinfo id="westEastBottom0.0" depart="17.00" departLane="westJunction_0" departPos="5.10" departSpeed="13.89" departDelay="0.00" arrival="93.00" arrivalLane="junctionEast_0" arrivalPos="492.80" arrivalSpeed="13.86" duration="76.00" routeLength="994.90" waitingTime="0.00" waitingCount="0" stopTime="0.00" timeLoss="3.49" rerouteNo="0" devices="tripinfo_westEastBottom0.0 ssm_westEastBottom0.0" vType="carCustom" speedFactor="0.95" vaporized=""/>
    <tripinfo id="southNorth.0" depart="15.00" departLane="southJunction_1" departPos="5.10" departSpeed="13.89" departDelay="0.61" arrival="95.00" arrivalLane="junctionNorth_0" arrivalPos="492.80" arrivalSpeed="13.52" duration="80.00" routeLength="995.01" waitingTime="0.00" waitingCount="0" stopTime="0.00" timeLoss="7.64" rerouteNo="0" devices="tripinfo_southNorth.0 ssm_southNorth.0" vType="carCustom" speedFactor="1.01" vaporized=""/>
    <tripinfo id="southEast.2" depart="53.00" departLane="southJunction_0" departPos="5.10" departSpeed="13.07" departDelay="0.07" arrival="95.00" arrivalLane="junctionEast_0" arrivalPos="492.80" arrivalSpeed="6.17" duration="42.00" routeLength="989.53" waitingTime="0.00" waitingCount="0" stopTime="0.00" timeLoss="5.02" rerouteNo="0" devices="tripinfo_southEast.2 ssm_southEast.2" vType="carCustom" speedFactor="0.97" vaporized="teleport"/>
    <tripinfo id="southNorth.1" depart="17.00" departLane="southJunction_1" departPos="5.10" departSpeed="13.58" departDelay="2.14" arrival="98.00" arrivalLane="junctionNorth_0" arrivalPos="492.80" arrivalSpeed="12.61" duration="81.00" routeLength="995.01" waitingTime="0.00" waitingCount="0" stopTime="0.00" timeLoss="8.54" rerouteNo="0" devices="tripinfo_southNorth.1 ssm_southNorth.1" vType="carCustom" speedFactor="1.16" vaporized=""/>
    <tripinfo id="southNorth.2" depart="19.00" departLane="southJunction_1" departPos="5.10" departSpeed="12.17" departDelay="0.64" arrival="100.00" arrivalLane="junctionNorth_0" arrivalPos="492.80" arrivalSpeed="13.43" duration="81.00" routeLength="995.01" waitingTime="0.00" waitingCount="0" stopTime="0.00" timeLoss="9.24" rerouteNo="0" devices="tripinfo_southNorth.2 ssm_southNorth.2" vType="carCustom" speedFactor="1.08" vaporized=""/>
    <tripinfo id="westEastTop.3" depart="16.00" departLane="westJunction_1" departPos="5.10" departSpeed="11.82" departDelay="0.22" arrival="103.00" arrivalLane="junctionEast_1" arrivalPos="492.80" arrivalSpeed="12.92" duration="87.00" routeLength="994.90" waitingTime="3.00" waitingCount="1" stopTime="0.00" timeLoss="14.74" rerouteNo="0" devices="tripinfo_westEastTop.3 ssm_westEastTop.3" vType="carCustom" speedFactor="1.08" vaporized=""/>
    <tripinfo id="westEastBottom0.1" depart="20.00" departLane="westJunction_0" departPos="5.10" departSpeed="13.04" departDelay="0.63" arrival="103.00" arrivalLane="junctionEast_0" arrivalPos="492.80" arrivalSpeed="13.69" duration="83.00" routeLength="994.90" waitingTime="0.00" waitingCount="0" stopTime="0.00" timeLoss="10.56" rerouteNo="0" devices="tripinfo_westEastBottom0.1 ssm_westEastBottom0.1" vType="carCustom" speedFactor="1.00" vaporized=""/>
    <tripinfo id="westEastTop.4" depart="18.00" departLane="westJunction_1" departPos="5.10" departSpeed="12.77" departDelay="1.17" arrival="105.00" arrivalLane="junctionEast_1" arrivalPos="492.80" arrivalSpeed="12.83" duration="87.00" routeLength="994.90" waitingTime="3.00" waitingCount="1" stopTime="0.00" timeLoss="15.37" rerouteNo="0" devices="tripinfo_westEastTop.4 ssm_westEastTop.4" vType="carCustom" speedFactor="1.21" vaporized=""/>
    <tripinfo id="westEastBottom0.2" depart="22.00" departLane="westJunction_0" departPos="5.10" departSpeed="13.59" departDelay="1.78" arrival="105.00" arrivalLane="junctionEast_0" arrivalPos="492.80" arrivalSpeed="12.78" duration="83.00" routeLength="994.90" waitingTime="0.00" waitingCount="0" stopTime="0.00" timeLoss="11.18" rerouteNo="0" devices="tripinfo_westEastBottom0.2 ssm_westEastBottom0.2" vType="carCustom" speedFactor="0.86" vaporized=""/>
    <tripinfo id="southNorth.3" depart="21.00" departLane="southJunction_1" departPos="5.10" departSpeed="9.96" departDelay="2.28" arrival="107.00" arrivalLane="junctionNorth_0" arrivalPos="492.80" arrivalSpeed="13.52" duration="86.00" routeLength="995.01" waitingTime="1.00" waitingCount="1" stopTime="0.00" timeLoss="14.35" rerouteNo="0" devices="tripinfo_southNorth.3 ssm_southNorth.3" vType="carCustom" speedFactor="1.10" vaporized=""/>
    <tripinfo id="southEast.1" depart="25.00" departLane="southJunction_0" departPos="5.10" departSpeed="13.08" departDelay="0.34" arrival="108.00" arrivalLane="junctionEast_0" arrivalPos="492.80" arrivalSpeed="13.28" duration="83.00" routeLength="989.53" waitingTime="2.00" waitingCount="1" stopTime="0.00" timeLoss="10.58" rerouteNo="0" devices="tripinfo_southEast.1 ssm_southEast.1" vType="carCustom" speedFactor="0.93" vaporized=""/>
    <tripinfo id="westEastTop.5" depart="21.00" departLane="westJunction_1" departPos="5.10" departSpeed="12.84" departDelay="0.83" arrival="113.00" arrivalLane="junctionEast_1" arrivalPos="492.80" arrivalSpeed="13.51" duration="92.00" routeLength="994.90" waitingTime="3.00" waitingCount="2" stopTime="0.00" timeLoss="20.36" rerouteNo="0" devices="tripinfo_westEastTop.5 ssm_westEastTop.5" vType="carCustom" speedFactor="1.06" vaporized=""/>
    <tripinfo id="westEastBottom0.3" depart="24.00" departLane="westJunction_0" departPos="5.10" departSpeed="12.04" departDelay="0.40" arrival="113.00" arrivalLane="junctionEast_0" arrivalPos="492.80" arrivalSpeed="13.64" duration="89.00" routeLength="994.90" waitingTime="2.00" waitingCount="1" stopTime="0.00" timeLoss="16.52" rerouteNo="0" devices="tripinfo_westEastBottom0.3 ssm_westEastBottom0.3" vType="carCustom" speedFactor="0.95" vaporized=""/>
    <tripinfo id="westEastBottom0.4" depart="33.00" departLane="westJunction_0" departPos="5.10" departSpeed="12.85" departDelay="0.32" arrival="115.00" arrivalLane="junctionEast_0" arrivalPos="492.80" arrivalSpeed="13.43" duration="82.00" routeLength="994.90" waitingTime="0.00" waitingCount="0" stopTime="0.00" timeLoss="10.36" rerouteNo="0" devices="tripinfo_westEastBottom0.4 ssm_westEastBottom0.4" vType="carCustom" speedFactor="1.11" vaporized=""/>
    <tripinfo id="southNorth.4" depart="38.00" departLane="southJunction_1" departPos="5.10" departSpeed="12.80" departDelay="0.50" arrival="116.00" arrivalLane="junctionNorth_0" arrivalPos="492.80" arrivalSpeed="12.97" duration="78.00" routeLength="995.01" waitingTime="0.00" waitingCount="0" stopTime="0.00" timeLoss="5.88" rerouteNo="0" devices="tripinfo_southNorth.4 ssm_southNorth.4" vType="carCustom" speedFactor="0.98" vaporized=""/>
    <tripinfo id="westEastTop.6" depart="29.00" departLane="westJunction_1" departPos="5.10" departSpeed="12.59" departDelay="0.84" arrival="123.00" arrivalLane="junctionEast_1" arrivalPos="492.80" arrivalSpeed="13.25" duration="94.00" routeLength="994.90" waitingTime="4.00" waitingCount="2" stopTime="0.00" timeLoss="21.96" rerouteNo="0" devices="tripinfo_westEastTop.6 ssm_westEastTop.6" vType="carCustom" speedFactor="1.08" vaporized=""/>
    <tripinfo id="westEastBottom0.5" depart="39.00" departLane="westJunction_0" departPos="5.10" departSpeed="13.09" departDelay="0.43" arrival="123.00" arrivalLane="junctionEast_0" arrivalPos="492.80" arrivalSpeed="13.32" duration="84.00" routeLength="994.90" waitingTime="0.00" waitingCount="0" stopTime="0.00" timeLoss="12.19" rerouteNo="0" devices="tripinfo_westEastBottom0.5 ssm_westEastBottom0.5" vType="carCustom" speedFactor="0.90" vaporized=""/>
    <tripinfo id="westEastTop.7" depart="31.00" departLane="westJunction_1" departPos="5.10" departSpeed="13.24" departDelay="2.48" arrival="126.00" arrivalLane="junctionEast_1" arrivalPos="492.80" arrivalSpeed="12.60" duration="95.00" routeLength="994.90" waitingTime="3.00" waitingCount="1" stopTime="0.00" timeLoss="22.72" rerouteNo="0" devices="tripinfo_westEastTop.7 ssm_westEastTop.7" vType="carCustom" speedFactor="0.94" vaporized=""/>
    <tripinfo id="westEastBottom0.6" depart="41.00" departLane="westJunction_0" departPos="5.10" departSpeed="12.86" departDelay="0.83" arrival="126.00" arrivalLane="junctionEast_0" arrivalPos="492.80" arrivalSpeed="13.37" duration="85.00" routeLength="994.90" waitingTime="0.00" waitingCount="0" stopTime="0.00" timeLoss="12.95" rerouteNo="0" devices="tripinfo_westEastBottom0.6 ssm_westEastBottom0.6" vType="carCustom" speedFactor="0.94" vaporized=""/>
    <tripinfo id="westEastTop.8" depart="33.00" departLane="westJunction_1" departPos="5.10" departSpeed="11.23" departDelay="4.01" arrival="129.00" arrivalLane="junctionEast_1" arrivalPos="492.80" arrivalSpeed="12.81" duration="96.00" routeLength="994.90" waitingTime="2.00" waitingCount="1" stopTime="0.00" timeLoss="23.55" rerouteNo="0" devices="tripinfo_westEastTop.8 ssm_westEastTop.8" vType="carCustom" speedFactor="1.05" vaporized=""/>
    <tripinfo id="westEastBottom0.7" depart="44.00" departLane="westJunction_0" departPos="5.10" departSpeed="11.98" departDelay="0.15" arrival="129.00" arrivalLane="junctionEast_0" arrivalPos="492.80" arrivalSpeed="13.58" duration="85.00" routeLength="994.90" waitingTime="0.00" waitingCount="0" stopTime="0.00" timeLoss="12.70" rerouteNo="0" devices="tripinfo_westEastBottom0.7 ssm_westEastBottom0.7" vType="carCustom" speedFactor="0.93" vaporized=""/>
    <tripinfo id="westEastTop.9" depart="35.00" departLane="westJunction_1" departPos="5.10" departSpeed="10.95" departDelay="3.64" arrival="131.00" arrivalLane="junctionEast_1" arrivalPos="492.80" arrivalSpeed="13.69" duration="96.00" routeLength="994.90" waitingTime="1.00" waitingCount="1" stopTime="0.00" timeLoss="24.06" rerouteNo="0" devices="tripinfo_westEastTop.9 ssm_westEastTop.9" vType="carCustom" speedFactor="1.00" vaporized=""/>
    <tripinfo id="westEastBottom0.8" depart="46.00" departLane="westJunction_0" departPos="5.10" departSpeed="13.41" departDelay="0.65" arrival="132.00" arrivalLane="junctionEast_0" arrivalPos="492.80" arrivalSpeed="12.80" duration="86.00" routeLength="994.90" waitingTime="0.00" waitingCount="0" stopTime="0.00" timeLoss="13.46" rerouteNo="0" devices="tripinfo_westEastBottom0.8 ssm_westEastBottom0.8" vType="carCustom" speedFactor="0.98" vaporized=""/>
    <tripinfo id="westEastTop.10" depart="37.00" departLane="westJunction_1" departPos="5.10" departSpeed="9.07" departDelay="3.34" arrival="134.00" arrivalLane="junctionEast_1" arrivalPos="492.80" arrivalSpeed="13.68" duration="97.00" routeLength="994.90" waitingTime="0.00" waitingCount="0" stopTime="0.00" timeLoss="24.78" rerouteNo="0" devices="tripinfo_westEastTop.10 ssm_westEastTop.10" vType="carCustom" speedFactor="1.18" vaporized=""/>
    <tripinfo id="westEastBottom0.9" depart="51.00" departLane="westJunction_0" departPos="5.10" departSpeed="12.70" departDelay="0.49" arrival="134.00" arrivalLane="junctionEast_0" arrivalPos="492.80" arrivalSpeed="13.73" duration="83.00" routeLength="994.90" waitingTime="0.00" waitingCount="0" stopTime="0.00" timeLoss="11.01" rerouteNo="0" devices="tripinfo_westEastBottom0.9 ssm_westEastBottom0.9" vType="carCustom" speedFactor="0.86" vaporized=""/>
    <tripinfo id="westEastTop.11" depart="47.00" departLane="westJunction_1" departPos="5.10" departSpeed="11.83" departDelay="0.43" arrival="136.00" arrivalLane="junctionEast_1" arrivalPos="492.80" arrivalSpeed="13.63" duration="89.00" routeLength="994.90" waitingTime="0.00" waitingCount="0" stopTime="0.00" timeLoss="17.31" rerouteNo="0" devices="tripinfo_westEastTop.11 ssm_westEastTop.11" vType="carCustom" speedFactor="0.98" vaporized=""/>
    <tripinfo id="westEastBottom0.10" depart="54.00" departLane="westJunction_0" departPos="5.10" departSpeed="13.51" departDelay="0.98" arrival="137.00" arrivalLane="junctionEast_0" arrivalPos="492.80" arrivalSpeed="13.07" duration="83.00" routeLength="994.90" waitingTime="0.00" waitingCount="0" stopTime="0.00" timeLoss="10.64" rerouteNo="0" devices="tripinfo_westEastBottom0.10 ssm_westEastBottom0.10" vType="carCustom" speedFactor="1.07" vaporized=""/>
    <tripinfo id="southNorth.5" depart="50.00" departLane="southJunction_1" departPos="5.10" departSpeed="13.80" departDelay="0.99" arrival="139.00" arrivalLane="junctionNorth_0" arrivalPos="492.80" arrivalSpeed="12.74" duration="89.00" routeLength="995.01" waitingTime="7.00" waitingCount="1" stopTime="0.00" timeLoss="17.06" rerouteNo="0" devices="tripinfo_southNorth.5 ssm_southNorth.5" vType="carCustom" speedFactor="0.97" vaporized=""/>
    <tripinfo id="westEastTop.12" depart="51.00" departLane="westJunction_1" departPos="5.10" departSpeed="13.71" departDelay="0.91" arrival="144.00" arrivalLane="junctionEast_0" arrivalPos="492.80" arrivalSpeed="13.89" duration="93.00" routeLength="994.90" waitingTime="3.00" waitingCount="1" stopTime="0.00" timeLoss="20.60" rerouteNo="0" devices="tripinfo_westEastTop.12 ssm_westEastTop.12" vType="carCustom" speedFactor="1.05" vaporized=""/>
    <tripinfo id="westEastTop.13" depart="53.00" departLane="westJunction_1" departPos="5.10" departSpeed="13.26" departDelay="0.71" arrival="146.00" arrivalLane="junctionEast_0" arrivalPos="492.80" arrivalSpeed="13.78" duration="93.00" routeLength="994.90" waitingTime="2.00" waitingCount="1" stopTime="0.00" timeLoss="21.19" rerouteNo="0" devices="tripinfo_westEastTop.13 ssm_westEastTop.13" vType="carCustom" speedFactor="0.95" vaporized=""/>
    <tripinfo id="southEast.3" depart="70.00" departLane="southJunction_0" departPos="5.10" departSpeed="13.64" departDelay="0.44" arrival="149.00" arrivalLane="junctionEast_0" arrivalPos="492.80" arrivalSpeed="13.22" duration="79.00" routeLength="989.53" waitingTime="0.00" waitingCount="0" stopTime="0.00" timeLoss="6.73" rerouteNo="0" devices="tripinfo_southEast.3 ssm_southEast.3" vType="carCustom" speedFactor="0.85" vaporized=""/>
    <tripinfo id="westEastBottom0.11" depart="74.00" departLane="westJunction_0" departPos="5.10" departSpeed="12.84" departDelay="0.49" arrival="152.00" arrivalLane="junctionEast_0" arrivalPos="492.80" arrivalSpeed="12.68" duration="78.00" routeLength="994.90" waitingTime="0.00" waitingCount="0" stopTime="0.00" timeLoss="6.05" rerouteNo="0" devices="tripinfo_westEastBottom0.11 ssm_westEastBottom0.11" vType="carCustom" speedFactor="1.14" vaporized=""/>
    <tripinfo id="westEastTop.14" depart="56.00" departLane="westJunction_1" departPos="5.10" departSpeed="12.05" departDelay="0.64" arrival="155.00" arrivalLane="junctionEast_0" arrivalPos="492.80" arrivalSpeed="13.40" duration="99.00" routeLength="994.90" waitingTime="2.00" waitingCount="1" stopTime="0.00" timeLoss="26.79" rerouteNo="0" devices="tripinfo_westEastTop.14 ssm_westEastTop.14" vType="carCustom" speedFactor="1.02" vaporized=""/>
    <tripinfo id="southNorth.6" depart="80.00" departLane="southJunction_1" departPos="5.10" departSpeed="12.94" departDelay="0.70" arrival="157.00" arrivalLane="junctionNorth_0" arrivalPos="492.80" arrivalSpeed="13.21" duration="77.00" routeLength="995.01" waitingTime="0.00" waitingCount="0" stopTime="0.00" timeLoss="4.75" rerouteNo="0" devices="tripinfo_southNorth.6 ssm_southNorth.6" vType="carCustom" speedFactor="0.97" vaporized=""/>
    <tripinfo id="westEastTop.15" depart="79.00" departLane="westJunction_1" departPos="5.10" departSpeed="13.74" departDelay="0.67" arrival="164.00" arrivalLane="junctionEast_0" arrivalPos="492.80" arrivalSpeed="13.64" duration="85.00" routeLength="994.90" waitingTime="3.00" waitingCount="1" stopTime="0.00" timeLoss="12.53" rerouteNo="0" devices="tripinfo_westEastTop.15 ssm_westEastTop.15" vType="carCustom" speedFactor="0.95" vaporized=""/>
    <tripinfo id="southNorth.7" depart="88.00" departLane="southJunction_1" departPos="5.10" departSpeed="13.06" departDelay="0.01" arrival="168.00" arrivalLane="junctionNorth_0" arrivalPos="492.80" arrivalSpeed="13.69" duration="80.00" routeLength="995.01" waitingTime="0.00" waitingCount="0" stopTime="0.00" timeLoss="8.32" rerouteNo="0" devices="tripinfo_southNorth.7 ssm_southNorth.7" vType="carCustom" speedFactor="1.13" vaporized=""/>
    <tripinfo id="southEast.4" depart="86.00" departLane="southJunction_0" departPos="5.10" departSpeed="13.70" departDelay="0.31" arrival="169.00" arrivalLane="junctionEast_0" arrivalPos="492.80" arrivalSpeed="12.89" duration="83.00" routeLength="989.53" waitingTime="2.00" waitingCount="1" stopTime="0.00" timeLoss="10.88" rerouteNo="0" devices="tripinfo_southEast.4 ssm_southEast.4" vType="carCustom" speedFactor="1.00" vaporized=""/>
    <tripinfo id="southEast.5" depart="88.00" departLane="southJunction_0" departPos="5.10" departSpeed="12.84" departDelay="1.17" arrival="172.00" arrivalLane="junctionEast_0" arrivalPos="492.80" arrivalSpeed="13.13" duration="84.00" routeLength="989.53" waitingTime="0.00" waitingCount="0" stopTime="0.00" timeLoss="12.13" rerouteNo="0" devices="tripinfo_southEast.5 ssm_southEast.5" vType="carCustom" speedFactor="1.26" vaporized=""/>
    <tripinfo id="westEastTop.16" depart="92.00" departLane="westJunction_1" departPos="5.10" departSpeed="12.86" departDelay="0.50" arrival="174.00" arrivalLane="junctionEast_1" arrivalPos="492.80" arrivalSpeed="12.90" duration="82.00" routeLength="994.90" waitingTime="1.00" waitingCount="1" stopTime="0.00" timeLoss="10.05" rerouteNo="0" devices="tripinfo_westEastTop.16 ssm_westEastTop.16" vType="carCustom" speedFactor="1.16" vaporized=""/>
    <tripinfo id="westEastBottom0.12" depart="91.00" departLane="westJunction_0" departPos="5.10" departSpeed="12.84" departDelay="0.51" arrival="175.00" arrivalLane="junctionEast_0" arrivalPos="492.80" arrivalSpeed="12.71" duration="84.00" routeLength="994.90" waitingTime="2.00" waitingCount="1" stopTime="0.00" timeLoss="11.71" rerouteNo="0" devices="tripinfo_westEastBottom0.12 ssm_westEastBottom0.12" vType="carCustom" speedFactor="0.82" vaporized=""/>
    <tripinfo id="westEastTop.17" depart="96.00" departLane="westJunction_1" departPos="5.10" departSpeed="13.43" departDelay="0.26" arrival="177.00" arrivalLane="junctionEast_1" arrivalPos="492.80" arrivalSpeed="13.13" duration="81.00" routeLength="994.90" waitingTime="0.00" waitingCount="0" stopTime="0.00" timeLoss="8.65" rerouteNo="0" devices="tripinfo_westEastTop.17 ssm_westEastTop.17" vType="carCustom" speedFactor="0.91" vaporized=""/>
    <tripinfo id="southEast.6" depart="98.00" departLane="southJunction_0" departPos="5.10" departSpeed="12.53" departDelay="0.56" arrival="177.00" arrivalLane="junctionEast_0" arrivalPos="492.80" arrivalSpeed="12.96" duration="79.00" routeLength="989.53" waitingTime="0.00" waitingCount="0" stopTime="0.00" timeLoss="7.38" rerouteNo="0" devices="tripinfo_southEast.6 ssm_southEast.6" vType="carCustom" speedFactor="1.10" vaporized=""/>
    <tripinfo id="southEast.7" depart="100.00" departLane="southJunction_0" departPos="5.10" departSpeed="12.72" departDelay="2.19" arrival="181.00" arrivalLane="junctionEast_0" arrivalPos="492.80" arrivalSpeed="13.75" duration="81.00" routeLength="989.53" waitingTime="0.00" waitingCount="0" stopTime="0.00" timeLoss="8.59" rerouteNo="0" devices="tripinfo_southEast.7 ssm_southEast.7" vType="carCustom" speedFactor="0.94" vaporized=""/>
    <tripinfo id="westEastTop.18" depart="102.00" departLane="westJunction_1" departPos="5.10" departSpeed="12.98" departDelay="0.33" arrival="184.00" arrivalLane="junctionEast_1" arrivalPos="492.80" arrivalSpeed="13.78" duration="82.00" routeLength="994.90" waitingTime="0.00" waitingCount="0" stopTime="0.00" timeLoss="9.59" rerouteNo="0" devices="tripinfo_westEastTop.18 ssm_westEastTop.18" vType="carCustom" speedFactor="0.99" vaporized=""/>
    <tripinfo id="westEastBottom0.13" depart="104.00" departLane="westJunction_0" departPos="5.10" departSpeed="12.90" departDelay="0.30" arrival="184.00" arrivalLane="junctionEast_0" arrivalPos="492.80" arrivalSpeed="13.46" duration="80.00" routeLength="994.90" waitingTime="0.00" waitingCount="0" stopTime="0.00" timeLoss="7.86" rerouteNo="0" devices="tripinfo_westEastBottom0.13 ssm_westEastBottom0.13" vType="carCustom" speedFactor="0.92" vaporized=""/>
    <tripinfo id="westEastTop.19" depart="107.00" departLane="westJunction_1" departPos="5.10" departSpeed="12.68" departDelay="0.33" arrival="186.00" arrivalLane="junctionEast_1" arrivalPos="492.80" arrivalSpeed="13.08" duration="79.00" routeLength="994.90" waitingTime="0.00" waitingCount="0" stopTime="0.00" timeLoss="7.33" rerouteNo="0" devices="tripinfo_westEastTop.19 ssm_westEastTop.19" vType="carCustom" speedFactor="0.96" vaporized=""/>
    <tripinfo id="westEastBottom0.14" depart="106.00" departLane="westJunction_0" departPos="5.10" departSpeed="13.58" departDelay="2.09" arrival="187.00" arrivalLane="junctionEast_0" arrivalPos="492.80" arrivalSpeed="13.89" duration="81.00" routeLength="994.90" waitingTime="0.00" waitingCount="0" stopTime="0.00" timeLoss="8.42" rerouteNo="0" devices="tripinfo_westEastBottom0.14 ssm_westEastBottom0.14" vType="carCustom" speedFactor="0.93" vaporized=""/>
    <tripinfo id="southEast.8" depart="106.00" departLane="southJunction_0" departPos="5.10" departSpeed="11.87" departDelay="0.81" arrival="189.00" arrivalLane="junctionEast_0" arrivalPos="492.80" arrivalSpeed="13.85" duration="83.00" routeLength="989.53" waitingTime="1.00" waitingCount="1" stopTime="0.00" timeLoss="10.84" rerouteNo="0" devices="tripinfo_southEast.8 ssm_southEast.8" vType="carCustom" speedFactor="1.14" vaporized=""/>
    <tripinfo id="southEast.9" depart="110.00" departLane="southJunction_0" departPos="5.10" departSpeed="13.86" departDelay="0.68" arrival="192.00" arrivalLane="junctionEast_0" arrivalPos="492.80" arrivalSpeed="13.26" duration="82.00" routeLength="989.53" waitingTime="0.00" waitingCount="0" stopTime="0.00" timeLoss="9.52" rerouteNo="0" devices="tripinfo_southEast.9 ssm_southEast.9" vType="carCustom" speedFactor="0.95" vaporized=""/>
    <tripinfo id="westEastTop.20" depart="109.00" departLane="westJunction_1" departPos="5.10" departSpeed="13.87" departDelay="0.68" arrival="193.00" arrivalLane="junctionEast_1" arrivalPos="492.80" arrivalSpeed="13.67" duration="84.00" routeLength="994.90" waitingTime="0.00" waitingCount="0" stopTime="0.00" timeLoss="12.10" rerouteNo="0" devices="tripinfo_westEastTop.20 ssm_westEastTop.20" vType="carCustom" speedFactor="0.94" vaporized=""/>
    <tripinfo id="westEastBottom0.15" depart="108.00" departLane="westJunction_0" departPos="5.10" departSpeed="12.31" departDelay="3.55" arrival="194.00" arrivalLane="junctionEast_0" arrivalPos="492.80" arrivalSpeed="13.45" duration="86.00" routeLength="994.90" waitingTime="2.00" waitingCount="1" stopTime="0.00" timeLoss="14.35" rerouteNo="0" devices="tripinfo_westEastBottom0.15 ssm_westEastBottom0.15" vType="carCustom" speedFactor="1.06" vaporized=""/>
    <tripinfo id="westEastTop.21" depart="113.00" departLane="westJunction_1" departPos="5.10" departSpeed="11.87" departDelay="0.66" arrival="196.00" arrivalLane="junctionEast_1" arrivalPos="492.80" arrivalSpeed="12.90" duration="83.00" routeLength="994.90" waitingTime="0.00" waitingCount="0" stopTime="0.00" timeLoss="10.73" rerouteNo="0" devices="tripinfo_westEastTop.21 ssm_westEastTop.21" vType="carCustom" speedFactor="0.88" vaporized=""/>
    <tripinfo id="westEastBottom0.16" depart="110.00" departLane="westJunction_0" departPos="5.10" departSpeed="10.70" departDelay="5.42" arrival="197.00" arrivalLane="junctionEast_0" arrivalPos="492.80" arrivalSpeed="13.87" duration="87.00" routeLength="994.90" waitingTime="0.00" waitingCount="0" stopTime="0.00" timeLoss="14.93" rerouteNo="0" devices="tripinfo_westEastBottom0.16 ssm_westEastBottom0.16" vType="carCustom" speedFactor="1.18" vaporized=""/>
    <tripinfo id="westEastBottom0.18" depart="114.00" departLane="westJunction_0" departPos="5.10" departSpeed="8.89" departDelay="1.11" arrival="198.00" arrivalLane="junctionEast_1" arrivalPos="492.80" arrivalSpeed="13.87" duration="84.00" routeLength="994.90" waitingTime="0.00" waitingCount="0" stopTime="0.00" timeLoss="12.28" rerouteNo="0" devices="tripinfo_westEastBottom0.18 ssm_westEastBottom0.18" vType="carCustom" speedFactor="1.05" vaporized=""/>
    <tripinfo id="westEastBottom0.17" depart="112.00" departLane="westJunction_0" departPos="5.10" departSpeed="10.63" departDelay="5.16" arrival="200.00" arrivalLane="junctionEast_0" arrivalPos="492.80" arrivalSpeed="13.18" duration="88.00" routeLength="994.90" waitingTime="0.00" waitingCount="0" stopTime="0.00" timeLoss="15.81" rerouteNo="0" devices="tripinfo_westEastBottom0.17 ssm_westEastBottom0.17" vType="carCustom" speedFactor="0.98" vaporized=""/>
    <tripinfo id="westEastTop.22" depart="119.00" departLane="westJunction_1" departPos="5.10" departSpeed="10.08" departDelay="0.49" arrival="201.00" arrivalLane="junctionEast_1" arrivalPos="492.80" arrivalSpeed="13.58" duration="82.00" routeLength="994.90" waitingTime="0.00" waitingCount="0" stopTime="0.00" timeLoss="9.91" rerouteNo="0" devices="tripinfo_westEastTop.22 ssm_westEastTop.22" vType="carCustom" speedFactor="0.97" vaporized=""/>
    <tripinfo id="southEast.10" depart="112.00" departLane="southJunction_0" departPos="5.10" departSpeed="13.39" departDelay="1.30" arrival="202.00" arrivalLane="junctionEast_0" arrivalPos="492.80" arrivalSpeed="13.42" duration="90.00" routeLength="989.53" waitingTime="3.00" waitingCount="1" stopTime="0.00" timeLoss="18.36" rerouteNo="0" devices="tripinfo_southEast.10 ssm_southEast.10" vType="carCustom" speedFactor="1.18" vaporized=""/>
    <tripinfo id="westEastTop.23" depart="121.00" departLane="westJunction_1" departPos="5.10" departSpeed="13.65" departDelay="0.20" arrival="204.00" arrivalLane="junctionEast_1" arrivalPos="492.80" arrivalSpeed="13.83" duration="83.00" routeLength="994.90" waitingTime="0.00" waitingCount="0" stopTime="0.00" timeLoss="10.69" rerouteNo="0" devices="tripinfo_westEastTop.23 ssm_westEastTop.23" vType="carCustom" speedFactor="1.10" vaporized=""/>
    <tripinfo id="southEast.11" depart="126.00" departLane="southJunction_0" departPos="5.10" departSpeed="12.48" departDelay="0.39" arrival="205.00" arrivalLane="junctionEast_0" arrivalPos="492.80" arrivalSpeed="13.65" duration="79.00" routeLength="989.53" waitingTime="0.00" waitingCount="0" stopTime="0.00" timeLoss="6.79" rerouteNo="0" devices="tripinfo_southEast.11 ssm_southEast.11" vType="carCustom" speedFactor="1.08" vaporized=""/>