<?xml version="1.0" encoding="UTF-8"?>

<!-- generated on 2025-04-29 08:16:52 by Eclipse SUMO sumo Version 1.20.0
<configuration xmlns:xsi="http://www.w3.org/2001/XMLSchema-instance" xsi:noNamespaceSchemaLocation="http://sumo.dlr.de/xsd/sumoConfiguration.xsd">

    <input>
        <net-file value="nets/2lane_unprotected_right/2lane_unprotected_right.net.xml"/>
        <route-files value="nets/2lane_unprotected_right/2lane_unprotected_right.rou.xml"/>
    </input>

    <output>
        <tripinfo-output value="traces/transs50f0.5_s50_f1_random/0150_tripinfo.xml"/>
        <collision-output value="traces/transs50f0.5_s50_f1_random/0150_collisions.xml"/>
        <statistic-output value="traces/transs50f0.5_s50_f1_random/0150_statistics.xml"/>
    </output>

    <processing>
        <collision.action value="teleport"/>
        <collision.check-junctions value="true"/>
        <time-to-teleport value="-1"/>
        <waiting-time-memory value="1000"/>
        <max-depart-delay value="-1"/>
        <default.speeddev value="0.1"/>
    </processing>

    <report>
        <no-warnings value="true"/>
    </report>

    <ssm_device>
        <device.ssm.probability value="1.0"/>
        <device.ssm.measures value="BR"/>
        <device.ssm.file value="/Users/finn/Code/CausalKnowledgeTransfer-4-SafeRL/traces/transs50f0.5_s50_f1_random/0150_ssm.xml"/>
    </ssm_device>

    <traci_server>
        <remote-port value="64258"/>
    </traci_server>

    <random_number>
        <random value="true"/>
    </random_number>

</configuration>
-->

<tripinfos xmlns:xsi="http://www.w3.org/2001/XMLSchema-instance" xsi:noNamespaceSchemaLocation="http://sumo.dlr.de/xsd/tripinfo_file.xsd">
    <tripinfo id="westEastTop.0" depart="2.00" departLane="westJunction_1" departPos="5.10" departSpeed="13.89" departDelay="0.24" arrival="77.00" arrivalLane="junctionEast_0" arrivalPos="492.80" arrivalSpeed="13.64" duration="75.00" routeLength="994.90" waitingTime="0.00" waitingCount="0" stopTime="0.00" timeLoss="3.15" rerouteNo="0" devices="tripinfo_westEastTop.0 ssm_westEastTop.0" vType="carCustom" speedFactor="0.94" vaporized=""/>
    <tripinfo id="westEastBottom0.0" depart="3.00" departLane="westJunction_0" departPos="5.10" departSpeed="13.89" departDelay="0.96" arrival="83.00" arrivalLane="junctionEast_0" arrivalPos="492.80" arrivalSpeed="13.19" duration="80.00" routeLength="994.90" waitingTime="0.00" waitingCount="0" stopTime="0.00" timeLoss="7.86" rerouteNo="0" devices="tripinfo_westEastBottom0.0 ssm_westEastBottom0.0" vType="carCustom" speedFactor="1.06" vaporized=""/>
    <tripinfo id="southNorth.0" depart="8.00" departLane="southJunction_1" departPos="5.10" departSpeed="13.89" departDelay="0.35" arrival="86.00" arrivalLane="junctionNorth_0" arrivalPos="492.80" arrivalSpeed="13.18" duration="78.00" routeLength="995.01" waitingTime="0.00" waitingCount="0" stopTime="0.00" timeLoss="5.70" rerouteNo="0" devices="tripinfo_southNorth.0 ssm_southNorth.0" vType="carCustom" speedFactor="0.97" vaporized=""/>
    <tripinfo id="westEastTop.1" depart="16.00" departLane="westJunction_1" departPos="5.10" departSpeed="13.47" departDelay="0.39" arrival="92.00" arrivalLane="junctionEast_0" arrivalPos="492.80" arrivalSpeed="13.32" duration="76.00" routeLength="994.90" waitingTime="0.00" waitingCount="0" stopTime="0.00" timeLoss="3.77" rerouteNo="0" devices="tripinfo_westEastTop.1 ssm_westEastTop.1" vType="carCustom" speedFactor="1.09" vaporized=""/>
    <tripinfo id="southNorth.1" depart="18.00" departLane="southJunction_1" departPos="5.10" departSpeed="13.65" departDelay="0.05" arrival="96.00" arrivalLane="junctionNorth_0" arrivalPos="492.80" arrivalSpeed="12.93" duration="78.00" routeLength="995.01" waitingTime="0.00" waitingCount="0" stopTime="0.00" timeLoss="6.09" rerouteNo="0" devices="tripinfo_southNorth.1 ssm_southNorth.1" vType="carCustom" speedFactor="1.01" vaporized=""/>
    <tripinfo id="westEastTop.2" depart="18.00" departLane="westJunction_1" departPos="5.10" departSpeed="13.76" departDelay="2.22" arrival="102.00" arrivalLane="junctionEast_0" arrivalPos="492.80" arrivalSpeed="12.72" duration="84.00" routeLength="994.90" waitingTime="0.00" waitingCount="0" stopTime="0.00" timeLoss="12.02" rerouteNo="0" devices="tripinfo_westEastTop.2 ssm_westEastTop.2" vType="carCustom" speedFactor="1.02" vaporized=""/>
    <tripinfo id="southNorth.2" depart="24.00" departLane="southJunction_1" departPos="5.10" departSpeed="12.88" departDelay="0.06" arrival="107.00" arrivalLane="junctionNorth_0" arrivalPos="492.80" arrivalSpeed="12.65" duration="83.00" routeLength="995.01" waitingTime="2.00" waitingCount="1" stopTime="0.00" timeLoss="11.25" rerouteNo="0" devices="tripinfo_southNorth.2 ssm_southNorth.2" vType="carCustom" speedFactor="1.03" vaporized=""/>
    <tripinfo id="southEast.0" depart="32.00" departLane="southJunction_0" departPos="5.10" departSpeed="13.89" departDelay="0.96" arrival="110.00" arrivalLane="junctionEast_0" arrivalPos="492.80" arrivalSpeed="12.62" duration="78.00" routeLength="989.53" waitingTime="0.00" waitingCount="0" stopTime="0.00" timeLoss="4.97" rerouteNo="0" devices="tripinfo_southEast.0 ssm_southEast.0" vType="carCustom" speedFactor="0.98" vaporized=""/>
    <tripinfo id="westEastTop.3" depart="25.00" departLane="westJunction_1" departPos="5.10" departSpeed="10.14" departDelay="0.76" arrival="115.00" arrivalLane="junctionEast_0" arrivalPos="492.80" arrivalSpeed="13.44" duration="90.00" routeLength="994.90" waitingTime="3.00" waitingCount="1" stopTime="0.00" timeLoss="18.13" rerouteNo="0" devices="tripinfo_westEastTop.3 ssm_westEastTop.3" vType="carCustom" speedFactor="1.09" vaporized=""/>
    <tripinfo id="westEastBottom0.1" depart="36.00" departLane="westJunction_0" departPos="5.10" departSpeed="13.20" departDelay="0.52" arrival="116.00" arrivalLane="junctionEast_1" arrivalPos="492.80" arrivalSpeed="13.80" duration="80.00" routeLength="994.90" waitingTime="0.00" waitingCount="0" stopTime="0.00" timeLoss="7.65" rerouteNo="0" devices="tripinfo_westEastBottom0.1 ssm_westEastBottom0.1" vType="carCustom" speedFactor="1.17" vaporized=""/>
    <tripinfo id="southNorth.3" depart="34.00" departLane="southJunction_1" departPos="5.10" departSpeed="13.18" departDelay="0.36" arrival="118.00" arrivalLane="junctionNorth_0" arrivalPos="492.80" arrivalSpeed="13.65" duration="84.00" routeLength="995.01" waitingTime="2.00" waitingCount="1" stopTime="0.00" timeLoss="11.88" rerouteNo="0" devices="tripinfo_southNorth.3 ssm_southNorth.3" vType="carCustom" speedFactor="0.98" vaporized=""/>
    <tripinfo id="southEast.5" depart="79.00" departLane="southJunction_0" departPos="5.10" departSpeed="11.44" departDelay="0.15" arrival="120.00" arrivalLane="junctionEast_0" arrivalPos="492.80" arrivalSpeed="6.07" duration="41.00" routeLength="989.53" waitingTime="0.00" waitingCount="0" stopTime="0.00" timeLoss="4.50" rerouteNo="0" devices="tripinfo_southEast.5 ssm_southEast.5" vType="carCustom" speedFactor="1.00" vaporized="teleport"/>
    <tripinfo id="southEast.1" depart="36.00" departLane="southJunction_0" departPos="5.10" departSpeed="12.83" departDelay="0.03" arrival="121.00" arrivalLane="junctionEast_0" arrivalPos="492.80" arrivalSpeed="13.18" duration="85.00" routeLength="989.53" waitingTime="0.00" waitingCount="0" stopTime="0.00" timeLoss="12.60" rerouteNo="0" devices="tripinfo_southEast.1 ssm_southEast.1" vType="carCustom" speedFactor="1.10" vaporized=""/>
    <tripinfo id="westEastTop.4" depart="28.00" departLane="westJunction_1" departPos="5.10" departSpeed="12.54" departDelay="0.49" arrival="123.00" arrivalLane="junctionEast_0" arrivalPos="492.80" arrivalSpeed="13.15" duration="95.00" routeLength="994.90" waitingTime="5.00" waitingCount="1" stopTime="0.00" timeLoss="23.04" rerouteNo="0" devices="tripinfo_westEastTop.4 ssm_westEastTop.4" vType="carCustom" speedFactor="0.95" vaporized=""/>
    <tripinfo id="southEast.2" depart="46.00" departLane="southJunction_0" departPos="5.10" departSpeed="12.86" departDelay="0.98" arrival="127.00" arrivalLane="junctionEast_0" arrivalPos="492.80" arrivalSpeed="13.86" duration="81.00" routeLength="989.53" waitingTime="0.00" waitingCount="0" stopTime="0.00" timeLoss="8.63" rerouteNo="0" devices="tripinfo_southEast.2 ssm_southEast.2" vType="carCustom" speedFactor="1.29" vaporized=""/>
    <tripinfo id="southNorth.4" depart="36.00" departLane="southJunction_1" departPos="5.10" departSpeed="12.69" departDelay="1.83" arrival="128.00" arrivalLane="junctionNorth_0" arrivalPos="492.80" arrivalSpeed="13.78" duration="92.00" routeLength="995.01" waitingTime="3.00" waitingCount="1" stopTime="0.00" timeLoss="19.96" rerouteNo="0" devices="tripinfo_southNorth.4 ssm_southNorth.4" vType="carCustom" speedFactor="1.07" vaporized=""/>
    <tripinfo id="westEastTop.5" depart="34.00" departLane="westJunction_1" departPos="5.10" departSpeed="10.73" departDelay="0.86" arrival="129.00" arrivalLane="junctionEast_1" arrivalPos="492.80" arrivalSpeed="13.49" duration="95.00" routeLength="994.90" waitingTime="0.00" waitingCount="0" stopTime="0.00" timeLoss="22.45" rerouteNo="0" devices="tripinfo_westEastTop.5 ssm_westEastTop.5" vType="carCustom" speedFactor="0.88" vaporized=""/>
    <tripinfo id="westEastBottom0.2" depart="56.00" departLane="westJunction_0" departPos="5.10" departSpeed="13.60" departDelay="1.00" arrival="132.00" arrivalLane="junctionEast_0" arrivalPos="492.80" arrivalSpeed="13.81" duration="76.00" routeLength="994.90" waitingTime="0.00" waitingCount="0" stopTime="0.00" timeLoss="4.02" rerouteNo="0" devices="tripinfo_westEastBottom0.2 ssm_westEastBottom0.2" vType="carCustom" speedFactor="0.95" vaporized=""/>
    <tripinfo id="westEastTop.6" depart="36.00" departLane="westJunction_1" departPos="5.10" departSpeed="10.07" departDelay="1.45" arrival="134.00" arrivalLane="junctionEast_0" arrivalPos="492.80" arrivalSpeed="13.26" duration="98.00" routeLength="994.90" waitingTime="1.00" waitingCount="1" stopTime="0.00" timeLoss="26.11" rerouteNo="0" devices="tripinfo_westEastTop.6 ssm_westEastTop.6" vType="carCustom" speedFactor="1.02" vaporized=""/>
    <tripinfo id="westEastTop.7" depart="38.00" departLane="westJunction_1" departPos="5.10" departSpeed="6.55" departDelay="0.35" arrival="138.00" arrivalLane="junctionEast_0" arrivalPos="492.80" arrivalSpeed="12.89" duration="100.00" routeLength="994.90" waitingTime="0.00" waitingCount="0" stopTime="0.00" timeLoss="28.19" rerouteNo="0" devices="tripinfo_westEastTop.7 ssm_westEastTop.7" vType="carCustom" speedFactor="0.90" vaporized=""/>
    <tripinfo id="westEastTop.8" depart="41.00" departLane="westJunction_1" departPos="5.10" departSpeed="5.48" departDelay="2.09" arrival="140.00" arrivalLane="junctionEast_1" arrivalPos="492.80" arrivalSpeed="12.83" duration="99.00" routeLength="994.90" waitingTime="0.00" waitingCount="0" stopTime="0.00" timeLoss="26.68" rerouteNo="0" devices="tripinfo_westEastTop.8 ssm_westEastTop.8" vType="carCustom" speedFactor="0.89" vaporized=""/>
    <tripinfo id="southNorth.5" depart="58.00" departLane="southJunction_1" departPos="5.10" departSpeed="13.02" departDelay="0.90" arrival="142.00" arrivalLane="junctionNorth_0" arrivalPos="492.80" arrivalSpeed="13.38" duration="84.00" routeLength="995.01" waitingTime="4.00" waitingCount="1" stopTime="0.00" timeLoss="12.28" rerouteNo="0" devices="tripinfo_southNorth.5 ssm_southNorth.5" vType="carCustom" speedFactor="0.94" vaporized=""/>
    <tripinfo id="southEast.3" depart="63.00" departLane="southJunction_0" departPos="5.10" departSpeed="13.84" departDelay="0.15" arrival="144.00" arrivalLane="junctionEast_0" arrivalPos="492.80" arrivalSpeed="12.66" duration="81.00" routeLength="989.53" waitingTime="0.00" waitingCount="0" stopTime="0.00" timeLoss="8.40" rerouteNo="0" devices="tripinfo_southEast.3 ssm_southEast.3" vType="carCustom" speedFactor="0.94" vaporized=""/>
    <tripinfo id="westEastTop.9" depart="44.00" departLane="westJunction_1" departPos="5.10" departSpeed="4.53" departDelay="4.41" arrival="149.00" arrivalLane="junctionEast_0" arrivalPos="492.80" arrivalSpeed="13.03" duration="105.00" routeLength="994.90" waitingTime="1.00" waitingCount="1" stopTime="0.00" timeLoss="32.98" rerouteNo="0" devices="tripinfo_westEastTop.9 ssm_westEastTop.9" vType="carCustom" speedFactor="1.11" vaporized=""/>
    <tripinfo id="southNorth.6" depart="60.00" departLane="southJunction_1" departPos="5.10" departSpeed="13.19" departDelay="2.06" arrival="153.00" arrivalLane="junctionNorth_0" arrivalPos="492.80" arrivalSpeed="13.48" duration="93.00" routeLength="995.01" waitingTime="4.00" waitingCount="1" stopTime="0.00" timeLoss="20.50" rerouteNo="0" devices="tripinfo_southNorth.6 ssm_southNorth.6" vType="carCustom" speedFactor="0.85" vaporized=""/>
    <tripinfo id="westEastTop.10" depart="49.00" departLane="westJunction_1" departPos="5.10" departSpeed="4.72" departDelay="0.44" arrival="154.00" arrivalLane="junctionEast_0" arrivalPos="492.80" arrivalSpeed="13.40" duration="105.00" routeLength="994.90" waitingTime="0.00" waitingCount="0" stopTime="0.00" timeLoss="32.58" rerouteNo="0" devices="tripinfo_westEastTop.10 ssm_westEastTop.10" vType="carCustom" speedFactor="0.91" vaporized=""/>
    <tripinfo id="southEast.4" depart="65.00" departLane="southJunction_0" departPos="5.10" departSpeed="13.18" departDelay="0.12" arrival="157.00" arrivalLane="junctionEast_0" arrivalPos="492.80" arrivalSpeed="13.83" duration="92.00" routeLength="989.53" waitingTime="2.00" waitingCount="1" stopTime="0.00" timeLoss="19.52" rerouteNo="0" devices="tripinfo_southEast.4 ssm_southEast.4" vType="carCustom" speedFactor="1.07" vaporized=""/>
    <tripinfo id="westEastBottom0.3" depart="67.00" departLane="westJunction_0" departPos="5.10" departSpeed="13.03" departDelay="0.30" arrival="158.00" arrivalLane="junctionEast_0" arrivalPos="492.80" arrivalSpeed="12.12" duration="91.00" routeLength="994.90" waitingTime="0.00" waitingCount="0" stopTime="0.00" timeLoss="19.17" rerouteNo="0" devices="tripinfo_westEastBottom0.3 ssm_westEastBottom0.3" vType="carCustom" speedFactor="1.08" vaporized=""/>
    <tripinfo id="southNorth.7" depart="70.00" departLane="southJunction_1" departPos="5.10" departSpeed="10.80" departDelay="0.69" arrival="158.00" arrivalLane="junctionNorth_0" arrivalPos="492.80" arrivalSpeed="13.29" duration="88.00" routeLength="995.01" waitingTime="0.00" waitingCount="0" stopTime="0.00" timeLoss="16.28" rerouteNo="0" devices="tripinfo_southNorth.7 ssm_southNorth.7" vType="carCustom" speedFactor="0.96" vaporized=""/>
    <tripinfo id="westEastBottom0.4" depart="81.00" departLane="westJunction_0" departPos="5.10" departSpeed="12.81" departDelay="0.85" arrival="162.00" arrivalLane="junctionEast_0" arrivalPos="492.80" arrivalSpeed="13.13" duration="81.00" routeLength="994.90" waitingTime="0.00" waitingCount="0" stopTime="0.00" timeLoss="8.56" rerouteNo="0" devices="tripinfo_westEastBottom0.4 ssm_westEastBottom0.4" vType="carCustom" speedFactor="0.89" vaporized=""/>
    <tripinfo id="southEast.6" depart="83.00" departLane="southJunction_0" departPos="5.10" departSpeed="12.99" departDelay="0.08" arrival="164.00" arrivalLane="junctionEast_0" arrivalPos="492.80" arrivalSpeed="13.40" duration="81.00" routeLength="989.53" waitingTime="0.00" waitingCount="0" stopTime="0.00" timeLoss="9.22" rerouteNo="0" devices="tripinfo_southEast.6 ssm_southEast.6" vType="carCustom" speedFactor="1.11" vaporized=""/>
    <tripinfo id="southNorth.8" depart="72.00" departLane="southJunction_1" departPos="5.10" departSpeed="13.38" departDelay="2.60" arrival="165.00" arrivalLane="junctionNorth_0" arrivalPos="492.80" arrivalSpeed="13.30" duration="93.00" routeLength="995.01" waitingTime="3.00" waitingCount="1" stopTime="0.00" timeLoss="20.83" rerouteNo="0" devices="tripinfo_southNorth.8 ssm_southNorth.8" vType="carCustom" speedFactor="1.20" vaporized=""/>
    <tripinfo id="westEastTop.11" depart="59.00" departLane="westJunction_1" departPos="5.10" departSpeed="7.35" departDelay="0.57" arrival="168.00" arrivalLane="junctionEast_0" arrivalPos="492.80" arrivalSpeed="12.99" duration="109.00" routeLength="994.90" waitingTime="0.00" waitingCount="0" stopTime="0.00" timeLoss="37.34" rerouteNo="0" devices="tripinfo_westEastTop.11 ssm_westEastTop.11" vType="carCustom" speedFactor="1.00" vaporized=""/>
    <tripinfo id="westEastTop.13" depart="68.00" departLane="westJunction_1" departPos="5.10" departSpeed="9.66" departDelay="0.68" arrival="170.00" arrivalLane="junctionEast_1" arrivalPos="492.80" arrivalSpeed="13.70" duration="102.00" routeLength="994.90" waitingTime="2.00" waitingCount="1" stopTime="0.00" timeLoss="30.33" rerouteNo="0" devices="tripinfo_westEastTop.13 ssm_westEastTop.13" vType="carCustom" speedFactor="1.04" vaporized=""/>
    <tripinfo id="westEastTop.12" depart="65.00" departLane="westJunction_1" departPos="5.10" departSpeed="8.88" departDelay="0.88" arrival="173.00" arrivalLane="junctionEast_0" arrivalPos="492.80" arrivalSpeed="12.77" duration="108.00" routeLength="994.90" waitingTime="0.00" waitingCount="0" stopTime="0.00" timeLoss="35.73" rerouteNo="0" devices="tripinfo_westEastTop.12 ssm_westEastTop.12" vType="carCustom" speedFactor="0.85" vaporized=""/>
    <tripinfo id="southNorth.9" depart="74.00" departLane="southJunction_1" departPos="5.10" departSpeed="9.04" departDelay="3.12" arrival="175.00" arrivalLane="junctionNorth_0" arrivalPos="492.80" arrivalSpeed="12.73" duration="101.00" routeLength="995.01" waitingTime="5.00" waitingCount="1" stopTime="0.00" timeLoss="28.49" rerouteNo="0" devices="tripinfo_southNorth.9 ssm_southNorth.9" vType="carCustom" speedFactor="1.06" vaporized=""/>
    <tripinfo id="westEastTop.14" depart="70.00" departLane="westJunction_1" departPos="5.10" departSpeed="7.87" departDelay="0.74" arrival="179.00" arrivalLane="junctionEast_0" arrivalPos="492.80" arrivalSpeed="13.13" duration="109.00" routeLength="994.90" waitingTime="5.00" waitingCount="1" stopTime="0.00" timeLoss="37.12" rerouteNo="0" devices="tripinfo_westEastTop.14 ssm_westEastTop.14" vType="carCustom" speedFactor="0.99" vaporized=""/>
    <tripinfo id="southNorth.10" depart="77.00" departLane="southJunction_1" departPos="5.10" departSpeed="6.43" departDelay="2.90" arrival="184.00" arrivalLane="junctionNorth_0" arrivalPos="492.80" arrivalSpeed="12.79" duration="107.00" routeLength="995.01" waitingTime="5.00" waitingCount="1" stopTime="0.00" timeLoss="35.33" rerouteNo="0" devices="tripinfo_southNorth.10 ssm_southNorth.10" vType="carCustom" speedFactor="1.17" vaporized=""/>
    <tripinfo id="westEastTop.15" depart="73.00" departLane="westJunction_1" departPos="5.10" departSpeed="5.15" departDelay="1.28" arrival="185.00" arrivalLane="junctionEast_0" arrivalPos="492.80" arrivalSpeed="13.12" duration="112.00" routeLength="994.90" waitingTime="2.00" waitingCount="1" stopTime="0.00" timeLoss="39.72" rerouteNo="0" devices="tripinfo_westEastTop.15 ssm_westEastTop.15" vType="carCustom" speedFactor="1.08" vaporized=""/>
    <tripinfo id="southEast.7" depart="101.00" departLane="southJunction_0" departPos="5.10" departSpeed="12.55" departDelay="0.39" arrival="185.00" arrivalLane="junctionEast_1" arrivalPos="492.80" arrivalSpeed="12.60" duration="84.00" routeLength="989.53" waitingTime="0.00" waitingCount="0" stopTime="0.00" timeLoss="11.41" rerouteNo="0" devices="tripinfo_southEast.7 ssm_southEast.7" vType="carCustom" speedFactor="0.94" vaporized=""/>
    <tripinfo id="southNorth.11" depart="87.00" departLane="southJunction_1" departPos="5.10" departSpeed="7.64" departDelay="0.21" arrival="190.00" arrivalLane="junctionNorth_0" arrivalPos="492.80" arrivalSpeed="12.71" duration="103.00" routeLength="995.01" waitingTime="2.00" waitingCount="1" stopTime="0.00" timeLoss="30.98" rerouteNo="0" devices="tripinfo_southNorth.11 ssm_southNorth.11" vType="carCustom" speedFactor="1.05" vaporized=""/>
    <tripinfo id="southEast.8" depart="108.00" departLane="southJunction_0" departPos="5.10" departSpeed="13.15" departDelay="0.79" arrival="190.00" arrivalLane="junctionEast_0" arrivalPos="492.80" arrivalSpeed="13.34" duration="82.00" routeLength="989.53" waitingTime="0.00" waitingCount="0" stopTime="0.00" timeLoss="10.17" rerouteNo="0" devices="tripinfo_southEast.8 ssm_southEast.8" vType="carCustom" speedFactor="1.02" vaporized=""/>
    <tripinfo id="westEastTop.16" depart="76.00" departLane="westJunction_1" departPos="5.10" departSpeed="5.22" departDelay="0.26" arrival="191.00" arrivalLane="junctionEast_1" arrivalPos="492.80" arrivalSpeed="13.51" duration="115.00" routeLength="994.90" waitingTime="2.00" waitingCount="1" stopTime="0.00" timeLoss="42.63" rerouteNo="0" devices="tripinfo_westEastTop.16 ssm_westEastTop.16" vType="carCustom" speedFactor="0.91" vaporized=""/>
    <tripinfo id="westEastTop.17" depart="80.00" departLane="westJunction_1" departPos="5.10" departSpeed="4.16" departDelay="2.53" arrival="196.00" arrivalLane="junctionEast_1" arrivalPos="492.80" arrivalSpeed="13.78" duration="116.00" routeLength="994.90" waitingTime="0.00" waitingCount="0" stopTime="0.00" timeLoss="44.08" rerouteNo="0" devices="tripinfo_westEastTop.17 ssm_westEastTop.17" vType="carCustom" speedFactor="1.03" vaporized=""/>
    <tripinfo id="southEast.9" depart="116.00" departLane="southJunction_0" departPos="5.10" departSpeed="13.89" departDelay="0.98" arrival="196.00" arrivalLane="junctionEast_0" arrivalPos="492.80" arrivalSpeed="12.87" duration="80.00" routeLength="989.53" waitingTime="0.00" waitingCount="0" stopTime="0.00" timeLoss="7.27" rerouteNo="0" devices="tripinfo_southEast.9 ssm_southEast.9" vType="carCustom" speedFactor="1.01" vaporized=""/>
    <tripinfo id="southNorth.12" depart="93.00" departLane="southJunction_1" departPos="5.10" departSpeed="10.73" departDelay="0.49" arrival="197.00" arrivalLane="junctionNorth_0" arrivalPos="492.80" arrivalSpeed="12.88" duration="104.00" routeLength="995.01" waitingTime="4.00" waitingCount="1" stopTime="0.00" timeLoss="32.23" rerouteNo="0" devices="tripinfo_southNorth.12 ssm_southNorth.12" vType="carCustom" speedFactor="0.92" vaporized=""/>
    <tripinfo id="westEastBottom0.5" depart="123.00" departLane="westJunction_0" departPos="5.10" departSpeed="13.89" departDelay="0.98" arrival="201.00" arrivalLane="junctionEast_0" arrivalPos="492.80" arrivalSpeed="13.56" duration="78.00" routeLength="994.90" waitingTime="0.00" waitingCount="0" stopTime="0.00" timeLoss="6.36" rerouteNo="0" devices="tripinfo_westEastBottom0.5 ssm_westEastBottom0.5" vType="carCustom" speedFactor="0.98" vaporized=""/>
    <tripinfo id="westEastTop.18" depart="86.00" departLane="westJunction_1" departPos="5.10" departSpeed="4.67" departDelay="0.91" arrival="202.00" arrivalLane="junctionEast_1" arrivalPos="492.80" arrivalSpeed="13.53" duration="116.00" routeLength="994.90" waitingTime="3.00" waitingCount="1" stopTime="0.00" timeLoss="43.94" rerouteNo="0" devices="tripinfo_westEastTop.18 ssm_westEastTop.18" vType="carCustom" speedFactor="1.00" vaporized=""/>
    <tripinfo id="southEast.10" depart="118.00" departLane="southJunction_0" departPos="5.10" departSpeed="13.71" departDelay="2.17" arrival="207.00" arrivalLane="junctionEast_0" arrivalPos="492.80" arrivalSpeed="13.32" duration="89.00" routeLength="989.53" waitingTime="0.00" waitingCount="0" stopTime="0.00" timeLoss="16.80" rerouteNo="0" devices="tripinfo_southEast.10 ssm_southEast.10" vType="carCustom" speedFactor="0.91" vaporized=""/>
    <tripinfo id="westEastTop.19" depart="89.00" departLane="westJunction_1" departPos="5.10" departSpeed="6.04" departDelay="3.08" arrival="208.00" arrivalLane="junctionEast_1" arrivalPos="492.80" arrivalSpeed="13.25" duration="119.00" routeLength="994.90" waitingTime="0.00" waitingCount="0" stopTime="0.00" timeLoss="46.45" rerouteNo="0" devices="tripinfo_westEastTop.19 ssm_westEastTop.19" vType="carCustom" speedFactor="0.89" vaporized=""/>
    <tripinfo id="southNorth.13" depart="116.00" departLane="southJunction_1" departPos="5.10" departSpeed="11.66" departDelay="0.87" arrival="208.00" arrivalLane="junctionNorth_0" arrivalPos="492.80" arrivalSpeed="13.39" duration="92.00" routeLength="995.01" waitingTime="5.00" waitingCount="1" stopTime="0.00" timeLoss="19.63" rerouteNo="0" devices="tripinfo_southNorth.13 ssm_southNorth.13" vType="carCustom" speedFactor="0.97" vaporized=""/>
    <tripinfo id="westEastTop.20" depart="92.00" departLane="westJunction_1" departPos="5.10" departSpeed="4.83" departDelay="1.83" arrival="213.00" arrivalLane="junctionEast_1" arrivalPos="492.80" arrivalSpeed="13.58" duration="121.00" routeLength="994.90" waitingTime="1.00" waitingCount="1" stopTime="0.00" timeLoss="49.01" rerouteNo="0" devices="tripinfo_westEastTop.20 ssm_westEastTop.20" vType="carCustom" speedFactor="0.99" vaporized=""/>
    <tripinfo id="southEast.11" depart="123.00" departLane="southJunction_0" departPos="5.10" departSpeed="9.96" departDelay="0.26" arrival="213.00" arrivalLane="junctionEast_0" arrivalPos="492.80" arrivalSpeed="13.02" duration="90.00" routeLength="989.53" waitingTime="0.00" waitingCount="0" stopTime="0.00" timeLoss="17.63" rerouteNo="0" devices="tripinfo_southEast.11 ssm_southEast.11" vType="carCustom" speedFactor="1.21" vaporized=""/>
    <tripinfo id="southNorth.14" depart="130.00" departLane="southJunction_1" departPos="5.10" departSpeed="13.53" departDelay="0.46" arrival="217.00" arrivalLane="junctionNorth_0" arrivalPos="492.80" arrivalSpeed="13.76" duration="87.00" routeLength="995.01" waitingTime="3.00" waitingCount="1" stopTime="0.00" timeLoss="14.50" rerouteNo="0" devices="tripinfo_southNorth.14 ssm_southNorth.14" vType="carCustom" speedFactor="0.95" vaporized=""/>
    <tripinfo id="westEastBottom0.6" depart="125.00" departLane="westJunction_0" departPos="5.10" departSpeed="13.28" departDelay="0.74" arrival="218.00" arrivalLane="junctionEast_0" arrivalPos="492.80" arrivalSpeed="13.81" duration="93.00" routeLength="994.90" waitingTime="1.00" waitingCount="1" stopTime="0.00" timeLoss="20.81" rerouteNo="0" devices="tripinfo_westEastBottom0.6 ssm_westEastBottom0.6" vType="carCustom" speedFactor="1.10" vaporized=""/>
    <tripinfo id="westEastTop.21" depart="96.00" departLane="westJunction_1" departPos="5.10" departSpeed="3.55" departDelay="2.41" arrival="222.00" arrivalLane="junctionEast_0" arrivalPos="492.80" arrivalSpeed="13.06" duration="126.00" routeLength="994.90" waitingTime="5.00" waitingCount="1" stopTime="0.00" timeLoss="53.85" rerouteNo="0" devices="tripinfo_westEastTop.21 ssm_westEastTop.21" vType="carCustom" speedFactor="1.15" vaporized=""/>
    <tripinfo id="southEast.12" depart="136.00" departLane="southJunction_0" departPos="5.10" departSpeed="11.34" departDelay="0.84" arrival="225.00" arrivalLane="junctionEast_0" arrivalPos="492.80" arrivalSpeed="13.14" duration="89.00" routeLength="989.53" waitingTime="0.00" waitingCount="0" stopTime="0.00" timeLoss="16.85" rerouteNo="0" devices="tripinfo_southEast.12 ssm_southEast.12" vType="carCustom" speedFactor="0.93" vaporized=""/>
    <tripinfo id="southNorth.15" depart="142.00" departLane="southJunction_1" departPos="5.10" departSpeed="12.77" departDelay="0.88" arrival="226.00" arrivalLane="junctionNorth_0" arrivalPos="492.80" arrivalSpeed="13.23" duration="84.00" routeLength="995.01" waitingTime="2.00" waitingCount="1" stopTime="0.00" timeLoss="12.35" rerouteNo="0" devices="tripinfo_southNorth.15 ssm_southNorth.15" vType="carCustom" speedFactor="1.19" vaporized=""/>
    <tripinfo id="westEastTop.22" depart="100.00" departLane="westJunction_1" departPos="5.10" departSpeed="4.81" departDelay="3.37" arrival="227.00" arrivalLane="junctionEast_1" arrivalPos="492.80" arrivalSpeed="13.07" duration="127.00" routeLength="994.90" waitingTime="2.00" waitingCount="1" stopTime="0.00" timeLoss="55.22" rerouteNo="0" devices="tripinfo_westEastTop.22 ssm_westEastTop.22" vType="carCustom" speedFactor="1.14" vaporized=""/>
    <tripinfo id="southEast.13" depart="140.00" departLane="southJunction_0" departPos="5.10" departSpeed="13.86" departDelay="0.07" arrival="230.00" arrivalLane="junctionEast_0" arrivalPos="492.80" arrivalSpeed="12.62" duration="90.00" routeLength="989.53" waitingTime="0.00" waitingCount="0" stopTime="0.00" timeLoss="17.59" rerouteNo="0" devices="tripinfo_southEast.13 ssm_southEast.13" vType="carCustom" speedFactor="1.07" vaporized=""/>
    <tripinfo id="westEastTop.23" depart="104.00" departLane="westJunction_1" departPos="5.10" departSpeed="4.59" departDelay="3.88" arrival="233.00" arrivalLane="junctionEast_0" arrivalPos="492.80" arrivalSpeed="13.01" duration="129.00" routeLength="994.90" waitingTime="2.00" waitingCount="2" stopTime="0.00" timeLoss="56.88" rerouteNo="0" devices="tripinfo_westEastTop.23 ssm_westEastTop.23" vType="carCustom" speedFactor="0.88" vaporized=""/>
    <tripinfo id="westEastBottom0.7" depart="146.00" departLane="westJunction_0" departPos="5.10" departSpeed="12.85" departDelay="0.21" arrival="235.00" arrivalLane="junctionEast_0" arrivalPos="492.80" arrivalSpeed="12.66" duration="89.00" routeLength="994.90" waitingTime="0.00" waitingCount="0" stopTime="0.00" timeLoss="16.72" rerouteNo="0" devices="tripinfo_westEastBottom0.7 ssm_westEastBottom0.7" vType="carCustom" speedFactor="1.05" vaporized=""/>
    <tripinfo id="southNorth.16" depart="148.00" departLane="southJunction_1" departPos="5.10" departSpeed="12.92" departDelay="0.86" arrival="237.00" arrivalLane="junctionNorth_0" arrivalPos="492.80" arrivalSpeed="12.86" duration="89.00" routeLength="995.01" waitingTime="4.00" waitingCount="1" stopTime="0.00" timeLoss="16.93" rerouteNo="0" devices="tripinfo_southNorth.16 ssm_southNorth.16" vType="carCustom" speedFactor="0.95" vaporized=""/>