<?xml version="1.0" encoding="UTF-8"?>

<!-- generated on 2025-04-29 08:22:45 by Eclipse SUMO sumo Version 1.20.0
<configuration xmlns:xsi="http://www.w3.org/2001/XMLSchema-instance" xsi:noNamespaceSchemaLocation="http://sumo.dlr.de/xsd/sumoConfiguration.xsd">

    <input>
        <net-file value="nets/2lane_unprotected_right/2lane_unprotected_right.net.xml"/>
        <route-files value="nets/2lane_unprotected_right/2lane_unprotected_right.rou.xml"/>
    </input>

    <output>
        <tripinfo-output value="traces/transs50f0.5_s50_f1_random/0155_tripinfo.xml"/>
        <collision-output value="traces/transs50f0.5_s50_f1_random/0155_collisions.xml"/>
        <statistic-output value="traces/transs50f0.5_s50_f1_random/0155_statistics.xml"/>
    </output>

    <processing>
        <collision.action value="teleport"/>
        <collision.check-junctions value="true"/>
        <time-to-teleport value="-1"/>
        <waiting-time-memory value="1000"/>
        <max-depart-delay value="-1"/>
        <default.speeddev value="0.1"/>
    </processing>

    <report>
        <no-warnings value="true"/>
    </report>

    <ssm_device>
        <device.ssm.probability value="1.0"/>
        <device.ssm.measures value="BR"/>
        <device.ssm.file value="/Users/finn/Code/CausalKnowledgeTransfer-4-SafeRL/traces/transs50f0.5_s50_f1_random/0155_ssm.xml"/>
    </ssm_device>

    <traci_server>
        <remote-port value="64319"/>
    </traci_server>

    <random_number>
        <random value="true"/>
    </random_number>

</configuration>
-->

<tripinfos xmlns:xsi="http://www.w3.org/2001/XMLSchema-instance" xsi:noNamespaceSchemaLocation="http://sumo.dlr.de/xsd/tripinfo_file.xsd">
    <tripinfo id="southEast.0" depart="1.00" departLane="southJunction_0" departPos="5.10" departSpeed="22.22" departDelay="0.59" arrival="51.00" arrivalLane="junctionEast_0" arrivalPos="492.80" arrivalSpeed="21.29" duration="50.00" routeLength="989.53" waitingTime="0.00" waitingCount="0" stopTime="0.00" timeLoss="3.63" rerouteNo="0" devices="tripinfo_southEast.0 ssm_southEast.0" vType="carCustom" speedFactor="1.05" vaporized=""/>
    <tripinfo id="westEastTop.0" depart="1.00" departLane="westJunction_1" departPos="5.10" departSpeed="22.22" departDelay="0.48" arrival="56.00" arrivalLane="junctionEast_1" arrivalPos="492.80" arrivalSpeed="22.09" duration="55.00" routeLength="994.90" waitingTime="2.00" waitingCount="1" stopTime="0.00" timeLoss="8.96" rerouteNo="0" devices="tripinfo_westEastTop.0 ssm_westEastTop.0" vType="carCustom" speedFactor="1.09" vaporized=""/>
    <tripinfo id="southNorth.0" depart="5.00" departLane="southJunction_1" departPos="5.10" departSpeed="22.22" departDelay="0.06" arrival="61.00" arrivalLane="junctionNorth_0" arrivalPos="492.80" arrivalSpeed="22.09" duration="56.00" routeLength="995.01" waitingTime="4.00" waitingCount="1" stopTime="0.00" timeLoss="10.95" rerouteNo="0" devices="tripinfo_southNorth.0 ssm_southNorth.0" vType="carCustom" speedFactor="1.10" vaporized=""/>
    <tripinfo id="westEastTop.1" depart="5.00" departLane="westJunction_1" departPos="5.10" departSpeed="21.45" departDelay="0.97" arrival="66.00" arrivalLane="junctionEast_1" arrivalPos="492.80" arrivalSpeed="22.18" duration="61.00" routeLength="994.90" waitingTime="0.00" waitingCount="0" stopTime="0.00" timeLoss="15.94" rerouteNo="0" devices="tripinfo_westEastTop.1 ssm_westEastTop.1" vType="carCustom" speedFactor="0.97" vaporized=""/>
    <tripinfo id="westEastBottom0.0" depart="6.00" departLane="westJunction_0" departPos="5.10" departSpeed="22.22" departDelay="0.72" arrival="68.00" arrivalLane="junctionEast_0" arrivalPos="492.80" arrivalSpeed="21.87" duration="62.00" routeLength="994.90" waitingTime="5.00" waitingCount="1" stopTime="0.00" timeLoss="16.32" rerouteNo="0" devices="tripinfo_westEastBottom0.0 ssm_westEastBottom0.0" vType="carCustom" speedFactor="0.90" vaporized=""/>
    <tripinfo id="southNorth.1" depart="13.00" departLane="southJunction_1" departPos="5.10" departSpeed="21.63" departDelay="0.19" arrival="71.00" arrivalLane="junctionNorth_0" arrivalPos="492.80" arrivalSpeed="21.41" duration="58.00" routeLength="995.01" waitingTime="0.00" waitingCount="0" stopTime="0.00" timeLoss="13.12" rerouteNo="0" devices="tripinfo_southNorth.1 ssm_southNorth.1" vType="carCustom" speedFactor="0.98" vaporized=""/>
    <tripinfo id="southEast.1" depart="6.00" departLane="southJunction_0" departPos="5.10" departSpeed="21.09" departDelay="0.64" arrival="77.00" arrivalLane="junctionEast_0" arrivalPos="492.80" arrivalSpeed="21.85" duration="71.00" routeLength="989.53" waitingTime="0.00" waitingCount="0" stopTime="0.00" timeLoss="24.28" rerouteNo="0" devices="tripinfo_southEast.1 ssm_southEast.1" vType="carCustom" speedFactor="0.85" vaporized=""/>
    <tripinfo id="westEastBottom0.1" depart="8.00" departLane="westJunction_0" departPos="5.10" departSpeed="20.64" departDelay="2.37" arrival="77.00" arrivalLane="junctionEast_1" arrivalPos="492.80" arrivalSpeed="21.36" duration="69.00" routeLength="994.90" waitingTime="0.00" waitingCount="0" stopTime="0.00" timeLoss="23.43" rerouteNo="0" devices="tripinfo_westEastBottom0.1 ssm_westEastBottom0.1" vType="carCustom" speedFactor="1.02" vaporized=""/>
    <tripinfo id="southNorth.2" depart="18.00" departLane="southJunction_1" departPos="5.10" departSpeed="16.89" departDelay="0.26" arrival="81.00" arrivalLane="junctionNorth_0" arrivalPos="492.80" arrivalSpeed="21.09" duration="63.00" routeLength="995.01" waitingTime="0.00" waitingCount="0" stopTime="0.00" timeLoss="18.08" rerouteNo="0" devices="tripinfo_southNorth.2 ssm_southNorth.2" vType="carCustom" speedFactor="1.01" vaporized=""/>
    <tripinfo id="southEast.2" depart="8.00" departLane="southJunction_0" departPos="5.10" departSpeed="18.01" departDelay="1.26" arrival="85.00" arrivalLane="junctionEast_0" arrivalPos="492.80" arrivalSpeed="21.98" duration="77.00" routeLength="989.53" waitingTime="0.00" waitingCount="0" stopTime="0.00" timeLoss="31.32" rerouteNo="0" devices="tripinfo_southEast.2 ssm_southEast.2" vType="carCustom" speedFactor="1.17" vaporized=""/>
    <tripinfo id="westEastTop.2" depart="19.00" departLane="westJunction_1" departPos="5.10" departSpeed="16.51" departDelay="0.58" arrival="87.00" arrivalLane="junctionEast_1" arrivalPos="492.80" arrivalSpeed="22.14" duration="68.00" routeLength="994.90" waitingTime="0.00" waitingCount="0" stopTime="0.00" timeLoss="22.63" rerouteNo="0" devices="tripinfo_westEastTop.2 ssm_westEastTop.2" vType="carCustom" speedFactor="1.07" vaporized=""/>
    <tripinfo id="southNorth.3" depart="27.00" departLane="southJunction_1" departPos="5.10" departSpeed="10.77" departDelay="0.08" arrival="92.00" arrivalLane="junctionNorth_0" arrivalPos="492.80" arrivalSpeed="21.36" duration="65.00" routeLength="995.01" waitingTime="0.00" waitingCount="0" stopTime="0.00" timeLoss="19.58" rerouteNo="0" devices="tripinfo_southNorth.3 ssm_southNorth.3" vType="carCustom" speedFactor="0.94" vaporized=""/>
    <tripinfo id="westEastBottom0.2" depart="22.00" departLane="westJunction_0" departPos="5.10" departSpeed="14.49" departDelay="0.62" arrival="93.00" arrivalLane="junctionEast_0" arrivalPos="492.80" arrivalSpeed="21.55" duration="71.00" routeLength="994.90" waitingTime="5.00" waitingCount="1" stopTime="0.00" timeLoss="25.61" rerouteNo="0" devices="tripinfo_westEastBottom0.2 ssm_westEastBottom0.2" vType="carCustom" speedFactor="1.01" vaporized=""/>
    <tripinfo id="southEast.3" depart="20.00" departLane="southJunction_0" departPos="5.10" departSpeed="11.34" departDelay="0.36" arrival="96.00" arrivalLane="junctionEast_1" arrivalPos="492.80" arrivalSpeed="21.62" duration="76.00" routeLength="989.53" waitingTime="0.00" waitingCount="0" stopTime="0.00" timeLoss="29.77" rerouteNo="0" devices="tripinfo_southEast.3 ssm_southEast.3" vType="carCustom" speedFactor="0.90" vaporized=""/>
    <tripinfo id="southEast.5" depart="24.00" departLane="southJunction_0" departPos="5.10" departSpeed="10.65" departDelay="3.74" arrival="102.00" arrivalLane="junctionEast_0" arrivalPos="492.80" arrivalSpeed="21.29" duration="78.00" routeLength="989.53" waitingTime="0.00" waitingCount="0" stopTime="0.00" timeLoss="31.64" rerouteNo="0" devices="tripinfo_southEast.5 ssm_southEast.5" vType="carCustom" speedFactor="0.90" vaporized=""/>
    <tripinfo id="westEastTop.3" depart="24.00" departLane="westJunction_1" departPos="5.10" departSpeed="17.68" departDelay="0.07" arrival="104.00" arrivalLane="junctionEast_1" arrivalPos="492.80" arrivalSpeed="21.68" duration="80.00" routeLength="994.90" waitingTime="0.00" waitingCount="0" stopTime="0.00" timeLoss="34.75" rerouteNo="0" devices="tripinfo_westEastTop.3 ssm_westEastTop.3" vType="carCustom" speedFactor="1.00" vaporized=""/>
    <tripinfo id="southEast.4" depart="22.00" departLane="southJunction_0" departPos="5.10" departSpeed="13.81" departDelay="2.15" arrival="110.00" arrivalLane="junctionEast_0" arrivalPos="492.80" arrivalSpeed="22.09" duration="88.00" routeLength="989.53" waitingTime="0.00" waitingCount="0" stopTime="0.00" timeLoss="42.74" rerouteNo="0" devices="tripinfo_southEast.4 ssm_southEast.4" vType="carCustom" speedFactor="1.21" vaporized=""/>
    <tripinfo id="southNorth.4" depart="30.00" departLane="southJunction_1" departPos="5.10" departSpeed="2.72" departDelay="2.45" arrival="112.00" arrivalLane="junctionNorth_0" arrivalPos="492.80" arrivalSpeed="21.63" duration="82.00" routeLength="995.01" waitingTime="2.00" waitingCount="1" stopTime="0.00" timeLoss="36.13" rerouteNo="0" devices="tripinfo_southNorth.4 ssm_southNorth.4" vType="carCustom" speedFactor="1.03" vaporized=""/>
    <tripinfo id="westEastTop.4" depart="28.00" departLane="westJunction_1" departPos="5.10" departSpeed="12.97" departDelay="0.45" arrival="112.00" arrivalLane="junctionEast_1" arrivalPos="492.80" arrivalSpeed="21.45" duration="84.00" routeLength="994.90" waitingTime="0.00" waitingCount="0" stopTime="0.00" timeLoss="38.88" rerouteNo="0" devices="tripinfo_westEastTop.4 ssm_westEastTop.4" vType="carCustom" speedFactor="1.08" vaporized=""/>
    <tripinfo id="westEastBottom0.6" depart="62.00" departLane="westJunction_0" departPos="5.10" departSpeed="8.43" departDelay="0.02" arrival="112.00" arrivalLane="junctionEast_0" arrivalPos="492.80" arrivalSpeed="8.19" duration="50.00" routeLength="994.90" waitingTime="0.00" waitingCount="0" stopTime="0.00" timeLoss="27.32" rerouteNo="0" devices="tripinfo_westEastBottom0.6 ssm_westEastBottom0.6" vType="carCustom" speedFactor="0.84" vaporized="teleport"/>
    <tripinfo id="westEastBottom0.3" depart="47.00" departLane="westJunction_0" departPos="5.10" departSpeed="15.44" departDelay="0.50" arrival="118.00" arrivalLane="junctionEast_0" arrivalPos="492.80" arrivalSpeed="21.86" duration="71.00" routeLength="994.90" waitingTime="1.00" waitingCount="1" stopTime="0.00" timeLoss="25.48" rerouteNo="0" devices="tripinfo_westEastBottom0.3 ssm_westEastBottom0.3" vType="carCustom" speedFactor="1.04" vaporized=""/>
    <tripinfo id="southEast.7" depart="27.00" departLane="southJunction_0" departPos="5.10" departSpeed="6.62" departDelay="0.26" arrival="120.00" arrivalLane="junctionEast_1" arrivalPos="492.80" arrivalSpeed="21.53" duration="93.00" routeLength="989.53" waitingTime="0.00" waitingCount="0" stopTime="0.00" timeLoss="46.84" rerouteNo="0" devices="tripinfo_southEast.7 ssm_southEast.7" vType="carCustom" speedFactor="0.96" vaporized=""/>
    <tripinfo id="southNorth.5" depart="35.00" departLane="southJunction_1" departPos="5.10" departSpeed="2.96" departDelay="4.36" arrival="123.00" arrivalLane="junctionNorth_0" arrivalPos="492.80" arrivalSpeed="21.18" duration="88.00" routeLength="995.01" waitingTime="0.00" waitingCount="0" stopTime="0.00" timeLoss="42.63" rerouteNo="0" devices="tripinfo_southNorth.5 ssm_southNorth.5" vType="carCustom" speedFactor="1.00" vaporized=""/>
    <tripinfo id="southEast.6" depart="25.00" departLane="southJunction_0" departPos="5.10" departSpeed="9.21" departDelay="1.14" arrival="126.00" arrivalLane="junctionEast_0" arrivalPos="492.80" arrivalSpeed="21.66" duration="101.00" routeLength="989.53" waitingTime="0.00" waitingCount="0" stopTime="0.00" timeLoss="54.43" rerouteNo="0" devices="tripinfo_southEast.6 ssm_southEast.6" vType="carCustom" speedFactor="1.09" vaporized=""/>
    <tripinfo id="westEastTop.5" depart="30.00" departLane="westJunction_1" departPos="5.10" departSpeed="10.39" departDelay="2.11" arrival="128.00" arrivalLane="junctionEast_1" arrivalPos="492.80" arrivalSpeed="21.35" duration="98.00" routeLength="994.90" waitingTime="2.00" waitingCount="1" stopTime="0.00" timeLoss="52.63" rerouteNo="0" devices="tripinfo_westEastTop.5 ssm_westEastTop.5" vType="carCustom" speedFactor="0.86" vaporized=""/>
    <tripinfo id="southNorth.6" depart="40.00" departLane="southJunction_1" departPos="5.10" departSpeed="2.63" departDelay="0.76" arrival="133.00" arrivalLane="junctionNorth_0" arrivalPos="492.80" arrivalSpeed="21.14" duration="93.00" routeLength="995.01" waitingTime="0.00" waitingCount="0" stopTime="0.00" timeLoss="48.16" rerouteNo="0" devices="tripinfo_southNorth.6 ssm_southNorth.6" vType="carCustom" speedFactor="1.01" vaporized=""/>
    <tripinfo id="westEastBottom0.4" depart="49.00" departLane="westJunction_0" departPos="5.10" departSpeed="17.24" departDelay="0.32" arrival="133.00" arrivalLane="junctionEast_0" arrivalPos="492.80" arrivalSpeed="21.95" duration="84.00" routeLength="994.90" waitingTime="0.00" waitingCount="0" stopTime="0.00" timeLoss="38.93" rerouteNo="0" devices="tripinfo_westEastBottom0.4 ssm_westEastBottom0.4" vType="carCustom" speedFactor="1.06" vaporized=""/>
    <tripinfo id="westEastTop.6" depart="32.00" departLane="westJunction_1" departPos="5.10" departSpeed="7.23" departDelay="3.52" arrival="135.00" arrivalLane="junctionEast_1" arrivalPos="492.80" arrivalSpeed="21.27" duration="103.00" routeLength="994.90" waitingTime="0.00" waitingCount="0" stopTime="0.00" timeLoss="58.03" rerouteNo="0" devices="tripinfo_westEastTop.6 ssm_westEastTop.6" vType="carCustom" speedFactor="1.02" vaporized=""/>
    <tripinfo id="southEast.8" depart="39.00" departLane="southJunction_0" departPos="5.10" departSpeed="8.73" departDelay="0.39" arrival="140.00" arrivalLane="junctionEast_0" arrivalPos="492.80" arrivalSpeed="21.63" duration="101.00" routeLength="989.53" waitingTime="0.00" waitingCount="0" stopTime="0.00" timeLoss="55.50" rerouteNo="0" devices="tripinfo_southEast.8 ssm_southEast.8" vType="carCustom" speedFactor="1.06" vaporized=""/>
    <tripinfo id="westEastTop.7" depart="35.00" departLane="westJunction_1" departPos="5.10" departSpeed="3.41" departDelay="0.88" arrival="143.00" arrivalLane="junctionEast_1" arrivalPos="492.80" arrivalSpeed="21.33" duration="108.00" routeLength="994.90" waitingTime="0.00" waitingCount="0" stopTime="0.00" timeLoss="62.33" rerouteNo="0" devices="tripinfo_westEastTop.7 ssm_westEastTop.7" vType="carCustom" speedFactor="1.02" vaporized=""/>
    <tripinfo id="southNorth.7" depart="49.00" departLane="southJunction_1" departPos="5.10" departSpeed="4.56" departDelay="0.31" arrival="144.00" arrivalLane="junctionNorth_0" arrivalPos="492.80" arrivalSpeed="21.07" duration="95.00" routeLength="995.01" waitingTime="0.00" waitingCount="0" stopTime="0.00" timeLoss="50.00" rerouteNo="0" devices="tripinfo_southNorth.7 ssm_southNorth.7" vType="carCustom" speedFactor="0.95" vaporized=""/>
    <tripinfo id="westEastBottom0.5" depart="51.00" departLane="westJunction_0" departPos="5.10" departSpeed="14.08" departDelay="1.68" arrival="147.00" arrivalLane="junctionEast_0" arrivalPos="492.80" arrivalSpeed="21.86" duration="96.00" routeLength="994.90" waitingTime="0.00" waitingCount="0" stopTime="0.00" timeLoss="51.19" rerouteNo="0" devices="tripinfo_westEastBottom0.5 ssm_westEastBottom0.5" vType="carCustom" speedFactor="0.97" vaporized=""/>
    <tripinfo id="southEast.9" depart="47.00" departLane="southJunction_0" departPos="5.10" departSpeed="10.42" departDelay="0.39" arrival="150.00" arrivalLane="junctionEast_1" arrivalPos="492.80" arrivalSpeed="22.04" duration="103.00" routeLength="989.53" waitingTime="0.00" waitingCount="0" stopTime="0.00" timeLoss="56.62" rerouteNo="0" devices="tripinfo_southEast.9 ssm_southEast.9" vType="carCustom" speedFactor="0.87" vaporized=""/>
    <tripinfo id="southEast.10" depart="49.00" departLane="southJunction_0" departPos="5.10" departSpeed="10.60" departDelay="2.01" arrival="154.00" arrivalLane="junctionEast_0" arrivalPos="492.80" arrivalSpeed="21.55" duration="105.00" routeLength="989.53" waitingTime="0.00" waitingCount="0" stopTime="0.00" timeLoss="59.17" rerouteNo="0" devices="tripinfo_southEast.10 ssm_southEast.10" vType="carCustom" speedFactor="0.97" vaporized=""/>
    <tripinfo id="southNorth.8" depart="53.00" departLane="southJunction_1" departPos="5.10" departSpeed="5.14" departDelay="0.91" arrival="155.00" arrivalLane="junctionNorth_0" arrivalPos="492.80" arrivalSpeed="21.66" duration="102.00" routeLength="995.01" waitingTime="1.00" waitingCount="1" stopTime="0.00" timeLoss="56.46" rerouteNo="0" devices="tripinfo_southNorth.8 ssm_southNorth.8" vType="carCustom" speedFactor="1.06" vaporized=""/>
    <tripinfo id="westEastTop.8" depart="39.00" departLane="westJunction_1" departPos="5.10" departSpeed="3.41" departDelay="2.62" arrival="157.00" arrivalLane="junctionEast_1" arrivalPos="492.80" arrivalSpeed="21.31" duration="118.00" routeLength="994.90" waitingTime="0.00" waitingCount="0" stopTime="0.00" timeLoss="72.67" rerouteNo="0" devices="tripinfo_westEastTop.8 ssm_westEastTop.8" vType="carCustom" speedFactor="0.84" vaporized=""/>
    <tripinfo id="southEast.11" depart="59.00" departLane="southJunction_0" departPos="5.10" departSpeed="8.18" departDelay="0.40" arrival="161.00" arrivalLane="junctionEast_0" arrivalPos="492.80" arrivalSpeed="21.88" duration="102.00" routeLength="989.53" waitingTime="0.00" waitingCount="0" stopTime="0.00" timeLoss="55.98" rerouteNo="0" devices="tripinfo_southEast.11 ssm_southEast.11" vType="carCustom" speedFactor="1.11" vaporized=""/>
    <tripinfo id="westEastTop.9" depart="44.00" departLane="westJunction_1" departPos="5.10" departSpeed="3.19" departDelay="5.29" arrival="164.00" arrivalLane="junctionEast_1" arrivalPos="492.80" arrivalSpeed="21.09" duration="120.00" routeLength="994.90" waitingTime="1.00" waitingCount="1" stopTime="0.00" timeLoss="74.70" rerouteNo="0" devices="tripinfo_westEastTop.9 ssm_westEastTop.9" vType="carCustom" speedFactor="1.07" vaporized=""/>
    <tripinfo id="southNorth.9" depart="56.00" departLane="southJunction_1" departPos="5.10" departSpeed="3.35" departDelay="2.46" arrival="165.00" arrivalLane="junctionNorth_0" arrivalPos="492.80" arrivalSpeed="22.02" duration="109.00" routeLength="995.01" waitingTime="2.00" waitingCount="1" stopTime="0.00" timeLoss="63.52" rerouteNo="0" devices="tripinfo_southNorth.9 ssm_southNorth.9" vType="carCustom" speedFactor="1.06" vaporized=""/>
    <tripinfo id="westEastBottom0.7" depart="70.00" departLane="westJunction_0" departPos="5.10" departSpeed="11.28" departDelay="0.36" arrival="168.00" arrivalLane="junctionEast_0" arrivalPos="492.80" arrivalSpeed="22.17" duration="98.00" routeLength="994.90" waitingTime="0.00" waitingCount="0" stopTime="0.00" timeLoss="52.81" rerouteNo="0" devices="tripinfo_westEastBottom0.7 ssm_westEastBottom0.7" vType="carCustom" speedFactor="1.00" vaporized=""/>
    <tripinfo id="southEast.12" depart="61.00" departLane="southJunction_0" departPos="5.10" departSpeed="9.79" departDelay="1.15" arrival="171.00" arrivalLane="junctionEast_1" arrivalPos="492.80" arrivalSpeed="21.67" duration="110.00" routeLength="989.53" waitingTime="0.00" waitingCount="0" stopTime="0.00" timeLoss="63.99" rerouteNo="0" devices="tripinfo_southEast.12 ssm_southEast.12" vType="carCustom" speedFactor="0.91" vaporized=""/>
    <tripinfo id="southNorth.10" depart="61.00" departLane="southJunction_1" departPos="5.10" departSpeed="2.96" departDelay="3.14" arrival="175.00" arrivalLane="junctionNorth_0" arrivalPos="492.80" arrivalSpeed="21.62" duration="114.00" routeLength="995.01" waitingTime="4.00" waitingCount="1" stopTime="0.00" timeLoss="68.77" rerouteNo="0" devices="tripinfo_southNorth.10 ssm_southNorth.10" vType="carCustom" speedFactor="0.88" vaporized=""/>
    <tripinfo id="westEastBottom0.8" depart="77.00" departLane="westJunction_0" departPos="5.10" departSpeed="10.75" departDelay="0.48" arrival="175.00" arrivalLane="junctionEast_0" arrivalPos="492.80" arrivalSpeed="21.31" duration="98.00" routeLength="994.90" waitingTime="0.00" waitingCount="0" stopTime="0.00" timeLoss="52.71" rerouteNo="0" devices="tripinfo_westEastBottom0.8 ssm_westEastBottom0.8" vType="carCustom" speedFactor="0.99" vaporized=""/>
    <tripinfo id="westEastBottom0.13" depart="123.00" departLane="westJunction_0" departPos="5.10" departSpeed="11.03" departDelay="0.68" arrival="177.00" arrivalLane="junctionEast_0" arrivalPos="492.80" arrivalSpeed="4.98" duration="54.00" routeLength="994.90" waitingTime="0.00" waitingCount="0" stopTime="0.00" timeLoss="31.35" rerouteNo="0" devices="tripinfo_westEastBottom0.13 ssm_westEastBottom0.13" vType="carCustom" speedFactor="0.95" vaporized="teleport"/>
    <tripinfo id="westEastTop.10" depart="49.00" departLane="westJunction_1" departPos="5.10" departSpeed="3.35" departDelay="0.52" arrival="178.00" arrivalLane="junctionEast_1" arrivalPos="492.80" arrivalSpeed="21.50" duration="129.00" routeLength="994.90" waitingTime="3.00" waitingCount="1" stopTime="0.00" timeLoss="83.57" rerouteNo="0" devices="tripinfo_westEastTop.10 ssm_westEastTop.10" vType="carCustom" speedFactor="1.00" vaporized=""/>
    <tripinfo id="southEast.13" depart="77.00" departLane="southJunction_0" departPos="5.10" departSpeed="7.86" departDelay="0.84" arrival="182.00" arrivalLane="junctionEast_0" arrivalPos="492.80" arrivalSpeed="22.11" duration="105.00" routeLength="989.53" waitingTime="1.00" waitingCount="1" stopTime="0.00" timeLoss="59.09" rerouteNo="0" devices="tripinfo_southEast.13 ssm_southEast.13" vType="carCustom" speedFactor="0.95" vaporized=""/>
    <tripinfo id="westEastTop.11" depart="53.00" departLane="westJunction_1" departPos="5.10" departSpeed="2.29" departDelay="0.74" arrival="185.00" arrivalLane="junctionEast_1" arrivalPos="492.80" arrivalSpeed="21.93" duration="132.00" routeLength="994.90" waitingTime="3.00" waitingCount="1" stopTime="0.00" timeLoss="86.61" rerouteNo="0" devices="tripinfo_westEastTop.11 ssm_westEastTop.11" vType="carCustom" speedFactor="1.05" vaporized=""/>
    <tripinfo id="southNorth.11" depart="81.00" departLane="southJunction_1" departPos="5.10" departSpeed="6.27" departDelay="0.20" arrival="185.00" arrivalLane="junctionNorth_0" arrivalPos="492.80" arrivalSpeed="21.46" duration="104.00" routeLength="995.01" waitingTime="4.00" waitingCount="1" stopTime="0.00" timeLoss="58.94" rerouteNo="0" devices="tripinfo_southNorth.11 ssm_southNorth.11" vType="carCustom" speedFactor="0.94" vaporized=""/>
    <tripinfo id="westEastBottom0.9" depart="82.00" departLane="westJunction_0" departPos="5.10" departSpeed="9.83" departDelay="0.54" arrival="189.00" arrivalLane="junctionEast_0" arrivalPos="492.80" arrivalSpeed="21.06" duration="107.00" routeLength="994.90" waitingTime="1.00" waitingCount="1" stopTime="0.00" timeLoss="61.33" rerouteNo="0" devices="tripinfo_westEastBottom0.9 ssm_westEastBottom0.9" vType="carCustom" speedFactor="0.92" vaporized=""/>
    <tripinfo id="westEastTop.12" depart="58.00" departLane="westJunction_1" departPos="5.10" departSpeed="2.88" departDelay="1.82" arrival="192.00" arrivalLane="junctionEast_1" arrivalPos="492.80" arrivalSpeed="22.13" duration="134.00" routeLength="994.90" waitingTime="4.00" waitingCount="1" stopTime="0.00" timeLoss="88.52" rerouteNo="0" devices="tripinfo_westEastTop.12 ssm_westEastTop.12" vType="carCustom" speedFactor="1.06" vaporized=""/>
    <tripinfo id="southNorth.12" depart="83.00" departLane="southJunction_1" departPos="5.10" departSpeed="9.03" departDelay="1.59" arrival="195.00" arrivalLane="junctionNorth_0" arrivalPos="492.80" arrivalSpeed="22.18" duration="112.00" routeLength="995.01" waitingTime="4.00" waitingCount="1" stopTime="0.00" timeLoss="66.84" rerouteNo="0" devices="tripinfo_southNorth.12 ssm_southNorth.12" vType="carCustom" speedFactor="1.03" vaporized=""/>
    <tripinfo id="southEast.14" depart="87.00" departLane="southJunction_0" departPos="5.10" departSpeed="10.72" departDelay="0.91" arrival="196.00" arrivalLane="junctionEast_0" arrivalPos="492.80" arrivalSpeed="22.04" duration="109.00" routeLength="989.53" waitingTime="2.00" waitingCount="1" stopTime="0.00" timeLoss="62.59" rerouteNo="0" devices="tripinfo_southEast.14 ssm_southEast.14" vType="carCustom" speedFactor="1.07" vaporized=""/>
    <tripinfo id="westEastTop.13" depart="63.00" departLane="westJunction_1" departPos="5.10" departSpeed="3.17" departDelay="4.74" arrival="199.00" arrivalLane="junctionEast_1" arrivalPos="492.80" arrivalSpeed="21.66" duration="136.00" routeLength="994.90" waitingTime="0.00" waitingCount="0" stopTime="0.00" timeLoss="90.62" rerouteNo="0" devices="tripinfo_westEastTop.13 ssm_westEastTop.13" vType="carCustom" speedFactor="0.88" vaporized=""/>
    <tripinfo id="westEastBottom0.10" depart="85.00" departLane="westJunction_0" departPos="5.10" departSpeed="7.93" departDelay="0.54" arrival="202.00" arrivalLane="junctionEast_0" arrivalPos="492.80" arrivalSpeed="21.99" duration="117.00" routeLength="994.90" waitingTime="2.00" waitingCount="1" stopTime="0.00" timeLoss="71.81" rerouteNo="0" devices="tripinfo_westEastBottom0.10 ssm_westEastBottom0.10" vType="carCustom" speedFactor="1.10" vaporized=""/>
    <tripinfo id="southNorth.13" depart="87.00" departLane="southJunction_1" departPos="5.10" departSpeed="5.19" departDelay="0.98" arrival="204.00" arrivalLane="junctionNorth_0" arrivalPos="492.80" arrivalSpeed="21.31" duration="117.00" routeLength="995.01" waitingTime="0.00" waitingCount="0" stopTime="0.00" timeLoss="71.44" rerouteNo="0" devices="tripinfo_southNorth.13 ssm_southNorth.13" vType="carCustom" speedFactor="0.96" vaporized=""/>
    <tripinfo id="westEastTop.14" depart="68.00" departLane="westJunction_1" departPos="5.10" departSpeed="2.55" departDelay="4.30" arrival="206.00" arrivalLane="junctionEast_1" arrivalPos="492.80" arrivalSpeed="21.39" duration="138.00" routeLength="994.90" waitingTime="0.00" waitingCount="0" stopTime="0.00" timeLoss="92.57" rerouteNo="0" devices="tripinfo_westEastTop.14 ssm_westEastTop.14" vType="carCustom" speedFactor="1.14" vaporized=""/>
    <tripinfo id="southEast.15" depart="109.00" departLane="southJunction_0" departPos="5.10" departSpeed="10.74" departDelay="0.26" arrival="209.00" arrivalLane="junctionEast_0" arrivalPos="492.80" arrivalSpeed="21.30" duration="100.00" routeLength="989.53" waitingTime="2.00" waitingCount="1" stopTime="0.00" timeLoss="53.85" rerouteNo="0" devices="tripinfo_southEast.15 ssm_southEast.15" vType="carCustom" speedFactor="0.90" vaporized=""/>
    <tripinfo id="southNorth.14" depart="104.00" departLane="southJunction_1" departPos="5.10" departSpeed="6.67" departDelay="0.80" arrival="213.00" arrivalLane="junctionNorth_0" arrivalPos="492.80" arrivalSpeed="21.19" duration="109.00" routeLength="995.01" waitingTime="5.00" waitingCount="1" stopTime="0.00" timeLoss="63.47" rerouteNo="0" devices="tripinfo_southNorth.14 ssm_southNorth.14" vType="carCustom" speedFactor="0.74" vaporized=""/>
    <tripinfo id="southEast.16" depart="116.00" departLane="southJunction_0" departPos="5.10" departSpeed="16.00" departDelay="0.23" arrival="213.00" arrivalLane="junctionEast_1" arrivalPos="492.80" arrivalSpeed="22.05" duration="97.00" routeLength="989.53" waitingTime="2.00" waitingCount="1" stopTime="0.00" timeLoss="50.85" rerouteNo="0" devices="tripinfo_southEast.16 ssm_southEast.16" vType="carCustom" speedFactor="1.07" vaporized=""/>
    <tripinfo id="westEastBottom0.11" depart="101.00" departLane="westJunction_0" departPos="5.10" departSpeed="8.45" departDelay="0.82" arrival="215.00" arrivalLane="junctionEast_0" arrivalPos="492.80" arrivalSpeed="22.15" duration="114.00" routeLength="994.90" waitingTime="3.00" waitingCount="1" stopTime="0.00" timeLoss="69.09" rerouteNo="0" devices="tripinfo_westEastBottom0.11 ssm_westEastBottom0.11" vType="carCustom" speedFactor="0.92" vaporized=""/>
    <tripinfo id="westEastTop.15" depart="73.00" departLane="westJunction_1" departPos="5.10" departSpeed="2.70" departDelay="5.86" arrival="220.00" arrivalLane="junctionEast_1" arrivalPos="492.80" arrivalSpeed="22.06" duration="147.00" routeLength="994.90" waitingTime="4.00" waitingCount="1" stopTime="0.00" timeLoss="101.31" rerouteNo="0" devices="tripinfo_westEastTop.15 ssm_westEastTop.15" vType="carCustom" speedFactor="1.02" vaporized=""/>
    <tripinfo id="westEastBottom0.18" depart="145.00" departLane="westJunction_0" departPos="5.10" departSpeed="8.08" departDelay="1.45" arrival="220.00" arrivalLane="junctionEast_0" arrivalPos="492.80" arrivalSpeed="4.36" duration="75.00" routeLength="994.90" waitingTime="0.00" waitingCount="0" stopTime="0.00" timeLoss="52.39" rerouteNo="0" devices="tripinfo_westEastBottom0.18 ssm_westEastBottom0.18" vType="carCustom" speedFactor="1.01" vaporized="teleport"/>
    <tripinfo id="westEastBottom0.12" depart="109.00" departLane="westJunction_0" departPos="5.10" departSpeed="11.71" departDelay="0.25" arrival="222.00" arrivalLane="junctionEast_0" arrivalPos="492.80" arrivalSpeed="22.12" duration="113.00" routeLength="994.90" waitingTime="3.00" waitingCount="1" stopTime="0.00" timeLoss="67.73" rerouteNo="0" devices="tripinfo_westEastBottom0.12 ssm_westEastBottom0.12" vType="carCustom" speedFactor="0.79" vaporized=""/>