<?xml version="1.0" encoding="UTF-8"?>

<!-- generated on 2025-04-29 08:26:38 by Eclipse SUMO sumo Version 1.20.0
<configuration xmlns:xsi="http://www.w3.org/2001/XMLSchema-instance" xsi:noNamespaceSchemaLocation="http://sumo.dlr.de/xsd/sumoConfiguration.xsd">

    <input>
        <net-file value="nets/2lane_unprotected_right/2lane_unprotected_right.net.xml"/>
        <route-files value="nets/2lane_unprotected_right/2lane_unprotected_right.rou.xml"/>
    </input>

    <output>
        <tripinfo-output value="traces/transs50f0.5_s50_f1_random/0158_tripinfo.xml"/>
        <collision-output value="traces/transs50f0.5_s50_f1_random/0158_collisions.xml"/>
        <statistic-output value="traces/transs50f0.5_s50_f1_random/0158_statistics.xml"/>
    </output>

    <processing>
        <collision.action value="teleport"/>
        <collision.check-junctions value="true"/>
        <time-to-teleport value="-1"/>
        <waiting-time-memory value="1000"/>
        <max-depart-delay value="-1"/>
        <default.speeddev value="0.1"/>
    </processing>

    <report>
        <no-warnings value="true"/>
    </report>

    <ssm_device>
        <device.ssm.probability value="1.0"/>
        <device.ssm.measures value="BR"/>
        <device.ssm.file value="/Users/finn/Code/CausalKnowledgeTransfer-4-SafeRL/traces/transs50f0.5_s50_f1_random/0158_ssm.xml"/>
    </ssm_device>

    <traci_server>
        <remote-port value="64358"/>
    </traci_server>

    <random_number>
        <random value="true"/>
    </random_number>

</configuration>
-->

<tripinfos xmlns:xsi="http://www.w3.org/2001/XMLSchema-instance" xsi:noNamespaceSchemaLocation="http://sumo.dlr.de/xsd/tripinfo_file.xsd">
    <tripinfo id="southEast.2" depart="23.00" departLane="southJunction_0" departPos="5.10" departSpeed="5.64" departDelay="0.99" arrival="93.00" arrivalLane="junctionEast_0" arrivalPos="492.80" arrivalSpeed="4.73" duration="70.00" routeLength="989.53" waitingTime="0.00" waitingCount="0" stopTime="0.00" timeLoss="9.64" rerouteNo="0" devices="tripinfo_southEast.2 ssm_southEast.2" vType="carCustom" speedFactor="0.81" vaporized="teleport"/>
    <tripinfo id="southNorth.0" depart="1.00" departLane="southJunction_1" departPos="5.10" departSpeed="8.33" departDelay="0.20" arrival="132.00" arrivalLane="junctionNorth_0" arrivalPos="492.80" arrivalSpeed="7.84" duration="131.00" routeLength="995.01" waitingTime="0.00" waitingCount="0" stopTime="0.00" timeLoss="11.23" rerouteNo="0" devices="tripinfo_southNorth.0 ssm_southNorth.0" vType="carCustom" speedFactor="1.19" vaporized=""/>
    <tripinfo id="westEastBottom0.0" depart="7.00" departLane="westJunction_0" departPos="5.10" departSpeed="8.33" departDelay="0.51" arrival="137.00" arrivalLane="junctionEast_0" arrivalPos="492.80" arrivalSpeed="7.26" duration="130.00" routeLength="994.90" waitingTime="0.00" waitingCount="0" stopTime="0.00" timeLoss="10.06" rerouteNo="0" devices="tripinfo_westEastBottom0.0 ssm_westEastBottom0.0" vType="carCustom" speedFactor="1.00" vaporized=""/>
    <tripinfo id="westEastTop.0" depart="2.00" departLane="westJunction_1" departPos="5.10" departSpeed="8.33" departDelay="0.16" arrival="138.00" arrivalLane="junctionEast_1" arrivalPos="492.80" arrivalSpeed="7.38" duration="136.00" routeLength="994.90" waitingTime="3.00" waitingCount="1" stopTime="0.00" timeLoss="16.53" rerouteNo="0" devices="tripinfo_westEastTop.0 ssm_westEastTop.0" vType="carCustom" speedFactor="0.97" vaporized=""/>
    <tripinfo id="southEast.0" depart="15.00" departLane="southJunction_0" departPos="5.10" departSpeed="8.33" departDelay="0.21" arrival="145.00" arrivalLane="junctionEast_0" arrivalPos="492.80" arrivalSpeed="8.23" duration="130.00" routeLength="989.53" waitingTime="0.00" waitingCount="0" stopTime="0.00" timeLoss="10.04" rerouteNo="0" devices="tripinfo_southEast.0 ssm_southEast.0" vType="carCustom" speedFactor="0.99" vaporized=""/>
    <tripinfo id="westEastBottom0.1" depart="15.00" departLane="westJunction_0" departPos="5.10" departSpeed="8.23" departDelay="0.80" arrival="149.00" arrivalLane="junctionEast_1" arrivalPos="492.80" arrivalSpeed="7.75" duration="134.00" routeLength="994.90" waitingTime="1.00" waitingCount="1" stopTime="0.00" timeLoss="14.17" rerouteNo="0" devices="tripinfo_westEastBottom0.1 ssm_westEastBottom0.1" vType="carCustom" speedFactor="0.94" vaporized=""/>
    <tripinfo id="westEastTop.1" depart="7.00" departLane="westJunction_1" departPos="5.10" departSpeed="7.79" departDelay="0.76" arrival="150.00" arrivalLane="junctionEast_0" arrivalPos="492.80" arrivalSpeed="7.16" duration="143.00" routeLength="994.90" waitingTime="4.00" waitingCount="1" stopTime="0.00" timeLoss="23.02" rerouteNo="0" devices="tripinfo_westEastTop.1 ssm_westEastTop.1" vType="carCustom" speedFactor="0.99" vaporized=""/>
    <tripinfo id="southNorth.1" depart="20.00" departLane="southJunction_1" departPos="5.10" departSpeed="7.55" departDelay="0.06" arrival="153.00" arrivalLane="junctionNorth_0" arrivalPos="492.80" arrivalSpeed="7.65" duration="133.00" routeLength="995.01" waitingTime="0.00" waitingCount="0" stopTime="0.00" timeLoss="12.93" rerouteNo="0" devices="tripinfo_southNorth.1 ssm_southNorth.1" vType="carCustom" speedFactor="1.05" vaporized=""/>
    <tripinfo id="southEast.1" depart="17.00" departLane="southJunction_0" departPos="5.10" departSpeed="7.13" departDelay="2.15" arrival="155.00" arrivalLane="junctionEast_0" arrivalPos="492.80" arrivalSpeed="7.99" duration="138.00" routeLength="989.53" waitingTime="0.00" waitingCount="0" stopTime="0.00" timeLoss="18.58" rerouteNo="0" devices="tripinfo_southEast.1 ssm_southEast.1" vType="carCustom" speedFactor="0.94" vaporized=""/>
    <tripinfo id="westEastTop.2" depart="20.00" departLane="westJunction_1" departPos="5.10" departSpeed="7.54" departDelay="0.73" arrival="160.00" arrivalLane="junctionEast_0" arrivalPos="492.80" arrivalSpeed="7.95" duration="140.00" routeLength="994.90" waitingTime="4.00" waitingCount="1" stopTime="0.00" timeLoss="20.48" rerouteNo="0" devices="tripinfo_westEastTop.2 ssm_westEastTop.2" vType="carCustom" speedFactor="1.11" vaporized=""/>
    <tripinfo id="westEastBottom0.2" depart="26.00" departLane="westJunction_0" departPos="5.10" departSpeed="7.51" departDelay="0.92" arrival="161.00" arrivalLane="junctionEast_1" arrivalPos="492.80" arrivalSpeed="8.27" duration="135.00" routeLength="994.90" waitingTime="0.00" waitingCount="0" stopTime="0.00" timeLoss="14.80" rerouteNo="0" devices="tripinfo_westEastBottom0.2 ssm_westEastBottom0.2" vType="carCustom" speedFactor="0.89" vaporized=""/>
    <tripinfo id="southNorth.2" depart="32.00" departLane="southJunction_1" departPos="5.10" departSpeed="7.65" departDelay="0.32" arrival="163.00" arrivalLane="junctionNorth_0" arrivalPos="492.80" arrivalSpeed="7.74" duration="131.00" routeLength="995.01" waitingTime="0.00" waitingCount="0" stopTime="0.00" timeLoss="10.83" rerouteNo="0" devices="tripinfo_southNorth.2 ssm_southNorth.2" vType="carCustom" speedFactor="1.01" vaporized=""/>
    <tripinfo id="southEast.9" depart="96.00" departLane="southJunction_0" departPos="5.10" departSpeed="7.36" departDelay="0.65" arrival="165.00" arrivalLane="junctionEast_0" arrivalPos="492.80" arrivalSpeed="6.96" duration="69.00" routeLength="989.53" waitingTime="0.00" waitingCount="0" stopTime="0.00" timeLoss="8.63" rerouteNo="0" devices="tripinfo_southEast.9 ssm_southEast.9" vType="carCustom" speedFactor="1.14" vaporized="teleport"/>
    <tripinfo id="southEast.3" depart="26.00" departLane="southJunction_0" departPos="5.10" departSpeed="6.25" departDelay="3.42" arrival="166.00" arrivalLane="junctionEast_0" arrivalPos="492.80" arrivalSpeed="8.19" duration="140.00" routeLength="989.53" waitingTime="0.00" waitingCount="0" stopTime="0.00" timeLoss="19.67" rerouteNo="0" devices="tripinfo_southEast.3 ssm_southEast.3" vType="carCustom" speedFactor="0.83" vaporized=""/>
    <tripinfo id="southEast.4" depart="34.00" departLane="southJunction_0" departPos="5.10" departSpeed="6.55" departDelay="0.97" arrival="170.00" arrivalLane="junctionEast_0" arrivalPos="492.80" arrivalSpeed="7.32" duration="136.00" routeLength="989.53" waitingTime="0.00" waitingCount="0" stopTime="0.00" timeLoss="16.16" rerouteNo="0" devices="tripinfo_southEast.4 ssm_southEast.4" vType="carCustom" speedFactor="0.93" vaporized=""/>
    <tripinfo id="westEastTop.3" depart="23.00" departLane="westJunction_1" departPos="5.10" departSpeed="8.29" departDelay="2.60" arrival="171.00" arrivalLane="junctionEast_1" arrivalPos="492.80" arrivalSpeed="7.72" duration="148.00" routeLength="994.90" waitingTime="5.00" waitingCount="1" stopTime="0.00" timeLoss="28.20" rerouteNo="0" devices="tripinfo_westEastTop.3 ssm_westEastTop.3" vType="carCustom" speedFactor="0.99" vaporized=""/>
    <tripinfo id="southNorth.3" depart="34.00" departLane="southJunction_1" departPos="5.10" departSpeed="7.56" departDelay="0.81" arrival="173.00" arrivalLane="junctionNorth_0" arrivalPos="492.80" arrivalSpeed="8.06" duration="139.00" routeLength="995.01" waitingTime="2.00" waitingCount="1" stopTime="0.00" timeLoss="19.47" rerouteNo="0" devices="tripinfo_southNorth.3 ssm_southNorth.3" vType="carCustom" speedFactor="1.01" vaporized=""/>
    <tripinfo id="southEast.5" depart="39.00" departLane="southJunction_0" departPos="5.10" departSpeed="6.82" departDelay="0.04" arrival="176.00" arrivalLane="junctionEast_1" arrivalPos="492.80" arrivalSpeed="7.61" duration="137.00" routeLength="989.53" waitingTime="0.00" waitingCount="0" stopTime="0.00" timeLoss="17.48" rerouteNo="0" devices="tripinfo_southEast.5 ssm_southEast.5" vType="carCustom" speedFactor="1.07" vaporized=""/>
    <tripinfo id="westEastBottom0.3" depart="41.00" departLane="westJunction_0" departPos="5.10" departSpeed="7.99" departDelay="0.88" arrival="176.00" arrivalLane="junctionEast_0" arrivalPos="492.80" arrivalSpeed="7.61" duration="135.00" routeLength="994.90" waitingTime="0.00" waitingCount="0" stopTime="0.00" timeLoss="14.99" rerouteNo="0" devices="tripinfo_westEastBottom0.3 ssm_westEastBottom0.3" vType="carCustom" speedFactor="1.13" vaporized=""/>
    <tripinfo id="southNorth.4" depart="41.00" departLane="southJunction_1" departPos="5.10" departSpeed="5.53" departDelay="0.77" arrival="179.00" arrivalLane="junctionNorth_0" arrivalPos="492.80" arrivalSpeed="8.11" duration="138.00" routeLength="995.01" waitingTime="0.00" waitingCount="0" stopTime="0.00" timeLoss="17.59" rerouteNo="0" devices="tripinfo_southNorth.4 ssm_southNorth.4" vType="carCustom" speedFactor="1.08" vaporized=""/>
    <tripinfo id="westEastTop.4" depart="28.00" departLane="westJunction_1" departPos="5.10" departSpeed="6.35" departDelay="0.57" arrival="181.00" arrivalLane="junctionEast_0" arrivalPos="492.80" arrivalSpeed="7.91" duration="153.00" routeLength="994.90" waitingTime="6.00" waitingCount="2" stopTime="0.00" timeLoss="32.93" rerouteNo="0" devices="tripinfo_westEastTop.4 ssm_westEastTop.4" vType="carCustom" speedFactor="1.00" vaporized=""/>
    <tripinfo id="southNorth.5" depart="47.00" departLane="southJunction_1" departPos="5.10" departSpeed="7.19" departDelay="0.81" arrival="184.00" arrivalLane="junctionNorth_0" arrivalPos="492.80" arrivalSpeed="7.16" duration="137.00" routeLength="995.01" waitingTime="1.00" waitingCount="1" stopTime="0.00" timeLoss="17.11" rerouteNo="0" devices="tripinfo_southNorth.5 ssm_southNorth.5" vType="carCustom" speedFactor="0.98" vaporized=""/>
    <tripinfo id="southEast.12" depart="112.00" departLane="southJunction_0" departPos="5.10" departSpeed="7.64" departDelay="1.63" arrival="185.00" arrivalLane="junctionEast_0" arrivalPos="492.80" arrivalSpeed="3.01" duration="73.00" routeLength="989.53" waitingTime="0.00" waitingCount="0" stopTime="0.00" timeLoss="13.09" rerouteNo="0" devices="tripinfo_southEast.12 ssm_southEast.12" vType="carCustom" speedFactor="1.11" vaporized="teleport"/>
    <tripinfo id="southEast.6" depart="51.00" departLane="southJunction_0" departPos="5.10" departSpeed="6.91" departDelay="0.63" arrival="186.00" arrivalLane="junctionEast_0" arrivalPos="492.80" arrivalSpeed="8.20" duration="135.00" routeLength="989.53" waitingTime="0.00" waitingCount="0" stopTime="0.00" timeLoss="15.40" rerouteNo="0" devices="tripinfo_southEast.6 ssm_southEast.6" vType="carCustom" speedFactor="1.04" vaporized=""/>
    <tripinfo id="westEastTop.6" depart="38.00" departLane="westJunction_1" departPos="5.10" departSpeed="5.31" departDelay="0.65" arrival="190.00" arrivalLane="junctionEast_1" arrivalPos="492.80" arrivalSpeed="7.97" duration="152.00" routeLength="994.90" waitingTime="2.00" waitingCount="1" stopTime="0.00" timeLoss="31.94" rerouteNo="0" devices="tripinfo_westEastTop.6 ssm_westEastTop.6" vType="carCustom" speedFactor="1.18" vaporized=""/>
    <tripinfo id="westEastTop.5" depart="31.00" departLane="westJunction_1" departPos="5.10" departSpeed="6.70" departDelay="1.05" arrival="191.00" arrivalLane="junctionEast_0" arrivalPos="492.80" arrivalSpeed="8.12" duration="160.00" routeLength="994.90" waitingTime="1.00" waitingCount="1" stopTime="0.00" timeLoss="39.63" rerouteNo="0" devices="tripinfo_westEastTop.5 ssm_westEastTop.5" vType="carCustom" speedFactor="0.88" vaporized=""/>
    <tripinfo id="westEastBottom0.4" depart="53.00" departLane="westJunction_0" departPos="5.10" departSpeed="7.97" departDelay="0.49" arrival="195.00" arrivalLane="junctionEast_0" arrivalPos="492.80" arrivalSpeed="7.50" duration="142.00" routeLength="994.90" waitingTime="3.00" waitingCount="1" stopTime="0.00" timeLoss="22.28" rerouteNo="0" devices="tripinfo_westEastBottom0.4 ssm_westEastBottom0.4" vType="carCustom" speedFactor="1.08" vaporized=""/>
    <tripinfo id="westEastTop.7" depart="44.00" departLane="westJunction_1" departPos="5.10" departSpeed="7.10" departDelay="0.73" arrival="196.00" arrivalLane="junctionEast_0" arrivalPos="492.80" arrivalSpeed="7.53" duration="152.00" routeLength="994.90" waitingTime="0.00" waitingCount="0" stopTime="0.00" timeLoss="31.93" rerouteNo="0" devices="tripinfo_westEastTop.7 ssm_westEastTop.7" vType="carCustom" speedFactor="1.09" vaporized=""/>
    <tripinfo id="westEastBottom0.5" depart="55.00" departLane="westJunction_0" departPos="5.10" departSpeed="7.28" departDelay="0.79" arrival="200.00" arrivalLane="junctionEast_0" arrivalPos="492.80" arrivalSpeed="8.13" duration="145.00" routeLength="994.90" waitingTime="0.00" waitingCount="0" stopTime="0.00" timeLoss="24.97" rerouteNo="0" devices="tripinfo_westEastBottom0.5 ssm_westEastBottom0.5" vType="carCustom" speedFactor="0.84" vaporized=""/>
    <tripinfo id="westEastTop.8" depart="48.00" departLane="westJunction_1" departPos="5.10" departSpeed="7.60" departDelay="0.44" arrival="201.00" arrivalLane="junctionEast_1" arrivalPos="492.80" arrivalSpeed="7.90" duration="153.00" routeLength="994.90" waitingTime="0.00" waitingCount="0" stopTime="0.00" timeLoss="32.79" rerouteNo="0" devices="tripinfo_westEastTop.8 ssm_westEastTop.8" vType="carCustom" speedFactor="0.93" vaporized=""/>
    <tripinfo id="southNorth.6" depart="64.00" departLane="southJunction_1" departPos="5.10" departSpeed="7.90" departDelay="0.36" arrival="201.00" arrivalLane="junctionNorth_0" arrivalPos="492.80" arrivalSpeed="7.06" duration="137.00" routeLength="995.01" waitingTime="4.00" waitingCount="1" stopTime="0.00" timeLoss="17.06" rerouteNo="0" devices="tripinfo_southNorth.6 ssm_southNorth.6" vType="carCustom" speedFactor="0.99" vaporized=""/>
    <tripinfo id="westEastBottom0.6" depart="58.00" departLane="westJunction_0" departPos="5.10" departSpeed="4.56" departDelay="3.57" arrival="205.00" arrivalLane="junctionEast_0" arrivalPos="492.80" arrivalSpeed="7.84" duration="147.00" routeLength="994.90" waitingTime="0.00" waitingCount="0" stopTime="0.00" timeLoss="26.76" rerouteNo="0" devices="tripinfo_westEastBottom0.6 ssm_westEastBottom0.6" vType="carCustom" speedFactor="1.06" vaporized=""/>
    <tripinfo id="westEastTop.9" depart="51.00" departLane="westJunction_1" departPos="5.10" departSpeed="6.25" departDelay="1.15" arrival="206.00" arrivalLane="junctionEast_1" arrivalPos="492.80" arrivalSpeed="7.83" duration="155.00" routeLength="994.90" waitingTime="3.00" waitingCount="1" stopTime="0.00" timeLoss="35.20" rerouteNo="0" devices="tripinfo_westEastTop.9 ssm_westEastTop.9" vType="carCustom" speedFactor="0.88" vaporized=""/>
    <tripinfo id="southEast.7" depart="73.00" departLane="southJunction_0" departPos="5.10" departSpeed="7.88" departDelay="0.19" arrival="209.00" arrivalLane="junctionEast_0" arrivalPos="492.80" arrivalSpeed="7.41" duration="136.00" routeLength="989.53" waitingTime="0.00" waitingCount="0" stopTime="0.00" timeLoss="16.94" rerouteNo="0" devices="tripinfo_southEast.7 ssm_southEast.7" vType="carCustom" speedFactor="1.00" vaporized=""/>
    <tripinfo id="southNorth.7" depart="70.00" departLane="southJunction_1" departPos="5.10" departSpeed="7.97" departDelay="0.91" arrival="211.00" arrivalLane="junctionNorth_0" arrivalPos="492.80" arrivalSpeed="7.70" duration="141.00" routeLength="995.01" waitingTime="5.00" waitingCount="1" stopTime="0.00" timeLoss="21.45" rerouteNo="0" devices="tripinfo_southNorth.7 ssm_southNorth.7" vType="carCustom" speedFactor="0.96" vaporized=""/>
    <tripinfo id="westEastBottom0.7" depart="65.00" departLane="westJunction_0" departPos="5.10" departSpeed="5.35" departDelay="0.95" arrival="214.00" arrivalLane="junctionEast_0" arrivalPos="492.80" arrivalSpeed="7.68" duration="149.00" routeLength="994.90" waitingTime="2.00" waitingCount="1" stopTime="0.00" timeLoss="29.51" rerouteNo="0" devices="tripinfo_westEastBottom0.7 ssm_westEastBottom0.7" vType="carCustom" speedFactor="0.95" vaporized=""/>
    <tripinfo id="westEastTop.10" depart="54.00" departLane="westJunction_1" departPos="5.10" departSpeed="4.69" departDelay="0.86" arrival="219.00" arrivalLane="junctionEast_0" arrivalPos="492.80" arrivalSpeed="7.75" duration="165.00" routeLength="994.90" waitingTime="5.00" waitingCount="1" stopTime="0.00" timeLoss="45.17" rerouteNo="0" devices="tripinfo_westEastTop.10 ssm_westEastTop.10" vType="carCustom" speedFactor="0.96" vaporized=""/>
    <tripinfo id="southNorth.8" depart="72.00" departLane="southJunction_1" departPos="5.10" departSpeed="8.06" departDelay="0.18" arrival="221.00" arrivalLane="junctionNorth_0" arrivalPos="492.80" arrivalSpeed="7.21" duration="149.00" routeLength="995.01" waitingTime="6.00" waitingCount="2" stopTime="0.00" timeLoss="28.87" rerouteNo="0" devices="tripinfo_southNorth.8 ssm_southNorth.8" vType="carCustom" speedFactor="1.03" vaporized=""/>
    <tripinfo id="southEast.8" depart="94.00" departLane="southJunction_0" departPos="5.10" departSpeed="8.06" departDelay="0.77" arrival="224.00" arrivalLane="junctionEast_0" arrivalPos="492.80" arrivalSpeed="8.29" duration="130.00" routeLength="989.53" waitingTime="0.00" waitingCount="0" stopTime="0.00" timeLoss="10.41" rerouteNo="0" devices="tripinfo_southEast.8 ssm_southEast.8" vType="carCustom" speedFactor="0.86" vaporized=""/>
    <tripinfo id="westEastTop.11" depart="58.00" departLane="westJunction_1" departPos="5.10" departSpeed="4.41" departDelay="4.39" arrival="229.00" arrivalLane="junctionEast_0" arrivalPos="492.80" arrivalSpeed="7.31" duration="171.00" routeLength="994.90" waitingTime="7.00" waitingCount="2" stopTime="0.00" timeLoss="51.30" rerouteNo="0" devices="tripinfo_westEastTop.11 ssm_westEastTop.11" vType="carCustom" speedFactor="0.95" vaporized=""/>
    <tripinfo id="westEastTop.12" depart="63.00" departLane="westJunction_1" departPos="5.10" departSpeed="4.66" departDelay="0.96" arrival="230.00" arrivalLane="junctionEast_1" arrivalPos="492.80" arrivalSpeed="7.51" duration="167.00" routeLength="994.90" waitingTime="2.00" waitingCount="1" stopTime="0.00" timeLoss="46.69" rerouteNo="0" devices="tripinfo_westEastTop.12 ssm_westEastTop.12" vType="carCustom" speedFactor="0.94" vaporized=""/>
    <tripinfo id="southNorth.9" depart="79.00" departLane="southJunction_1" departPos="5.10" departSpeed="6.31" departDelay="0.70" arrival="231.00" arrivalLane="junctionNorth_0" arrivalPos="492.80" arrivalSpeed="7.89" duration="152.00" routeLength="995.01" waitingTime="7.00" waitingCount="2" stopTime="0.00" timeLoss="31.65" rerouteNo="0" devices="tripinfo_southNorth.9 ssm_southNorth.9" vType="carCustom" speedFactor="0.97" vaporized=""/>
    <tripinfo id="westEastBottom0.8" depart="100.00" departLane="westJunction_0" departPos="5.10" departSpeed="7.43" departDelay="0.76" arrival="235.00" arrivalLane="junctionEast_0" arrivalPos="492.80" arrivalSpeed="7.27" duration="135.00" routeLength="994.90" waitingTime="0.00" waitingCount="0" stopTime="0.00" timeLoss="14.81" rerouteNo="0" devices="tripinfo_westEastBottom0.8 ssm_westEastBottom0.8" vType="carCustom" speedFactor="1.05" vaporized=""/>
    <tripinfo id="westEastTop.13" depart="68.00" departLane="westJunction_1" departPos="5.10" departSpeed="5.04" departDelay="0.76" arrival="240.00" arrivalLane="junctionEast_0" arrivalPos="492.80" arrivalSpeed="7.66" duration="172.00" routeLength="994.90" waitingTime="3.00" waitingCount="2" stopTime="0.00" timeLoss="51.87" rerouteNo="0" devices="tripinfo_westEastTop.13 ssm_westEastTop.13" vType="carCustom" speedFactor="1.02" vaporized=""/>
    <tripinfo id="southNorth.10" depart="84.00" departLane="southJunction_1" departPos="5.10" departSpeed="7.74" departDelay="0.40" arrival="240.00" arrivalLane="junctionNorth_0" arrivalPos="492.80" arrivalSpeed="8.15" duration="156.00" routeLength="995.01" waitingTime="8.00" waitingCount="2" stopTime="0.00" timeLoss="36.24" rerouteNo="0" devices="tripinfo_southNorth.10 ssm_southNorth.10" vType="carCustom" speedFactor="0.90" vaporized=""/>
    <tripinfo id="westEastTop.14" depart="73.00" departLane="westJunction_1" departPos="5.10" departSpeed="4.30" departDelay="0.68" arrival="245.00" arrivalLane="junctionEast_0" arrivalPos="492.80" arrivalSpeed="7.83" duration="172.00" routeLength="994.90" waitingTime="1.00" waitingCount="1" stopTime="0.00" timeLoss="52.08" rerouteNo="0" devices="tripinfo_westEastTop.14 ssm_westEastTop.14" vType="carCustom" speedFactor="0.86" vaporized=""/>
    <tripinfo id="westEastTop.15" depart="76.00" departLane="westJunction_1" departPos="5.10" departSpeed="5.04" departDelay="2.06" arrival="246.00" arrivalLane="junctionEast_1" arrivalPos="492.80" arrivalSpeed="7.29" duration="170.00" routeLength="994.90" waitingTime="1.00" waitingCount="1" stopTime="0.00" timeLoss="50.24" rerouteNo="0" devices="tripinfo_westEastTop.15 ssm_westEastTop.15" vType="carCustom" speedFactor="1.00" vaporized=""/>
    <tripinfo id="southNorth.11" depart="88.00" departLane="southJunction_1" departPos="5.10" departSpeed="7.32" departDelay="0.57" arrival="246.00" arrivalLane="junctionNorth_0" arrivalPos="492.80" arrivalSpeed="7.26" duration="158.00" routeLength="995.01" waitingTime="2.00" waitingCount="1" stopTime="0.00" timeLoss="37.72" rerouteNo="0" devices="tripinfo_southNorth.11 ssm_southNorth.11" vType="carCustom" speedFactor="1.11" vaporized=""/>
    <tripinfo id="southEast.19" depart="169.00" departLane="southJunction_0" departPos="5.10" departSpeed="7.29" departDelay="0.56" arrival="246.00" arrivalLane="junctionEast_0" arrivalPos="492.80" arrivalSpeed="5.96" duration="77.00" routeLength="989.53" waitingTime="4.00" waitingCount="1" stopTime="0.00" timeLoss="16.82" rerouteNo="0" devices="tripinfo_southEast.19 ssm_southEast.19" vType="carCustom" speedFactor="0.95" vaporized="teleport"/>
    <tripinfo id="southEast.10" depart="102.00" departLane="southJunction_0" departPos="5.10" departSpeed="6.33" departDelay="0.10" arrival="250.00" arrivalLane="junctionEast_0" arrivalPos="492.80" arrivalSpeed="7.87" duration="148.00" routeLength="989.53" waitingTime="3.00" waitingCount="1" stopTime="0.00" timeLoss="27.87" rerouteNo="0" devices="tripinfo_southEast.10 ssm_southEast.10" vType="carCustom" speedFactor="0.70" vaporized=""/>
    <tripinfo id="southNorth.12" depart="91.00" departLane="southJunction_1" departPos="5.10" departSpeed="6.63" departDelay="0.64" arrival="251.00" arrivalLane="junctionNorth_0" arrivalPos="492.80" arrivalSpeed="7.48" duration="160.00" routeLength="995.01" waitingTime="3.00" waitingCount="2" stopTime="0.00" timeLoss="40.01" rerouteNo="0" devices="tripinfo_southNorth.12 ssm_southNorth.12" vType="carCustom" speedFactor="0.88" vaporized=""/>
    <tripinfo id="southEast.11" depart="109.00" departLane="southJunction_0" departPos="5.10" departSpeed="6.95" departDelay="0.90" arrival="251.00" arrivalLane="junctionEast_1" arrivalPos="492.80" arrivalSpeed="7.20" duration="142.00" routeLength="989.53" waitingTime="0.00" waitingCount="0" stopTime="0.00" timeLoss="22.63" rerouteNo="0" devices="tripinfo_southEast.11 ssm_southEast.11" vType="carCustom" speedFactor="1.09" vaporized=""/>
    <tripinfo id="westEastBottom0.9" depart="118.00" departLane="westJunction_0" departPos="5.10" departSpeed="8.13" departDelay="0.27" arrival="255.00" arrivalLane="junctionEast_0" arrivalPos="492.80" arrivalSpeed="7.42" duration="137.00" routeLength="994.90" waitingTime="0.00" waitingCount="0" stopTime="0.00" timeLoss="17.28" rerouteNo="0" devices="tripinfo_westEastBottom0.9 ssm_westEastBottom0.9" vType="carCustom" speedFactor="1.10" vaporized=""/>
    <tripinfo id="westEastTop.16" depart="80.00" departLane="westJunction_1" departPos="5.10" departSpeed="3.72" departDelay="2.83" arrival="257.00" arrivalLane="junctionEast_0" arrivalPos="492.80" arrivalSpeed="7.22" duration="177.00" routeLength="994.90" waitingTime="5.00" waitingCount="1" stopTime="0.00" timeLoss="56.79" rerouteNo="0" devices="tripinfo_westEastTop.16 ssm_westEastTop.16" vType="carCustom" speedFactor="1.01" vaporized=""/>
    <tripinfo id="southNorth.13" depart="94.00" departLane="southJunction_1" departPos="5.10" departSpeed="4.42" departDelay="0.49" arrival="261.00" arrivalLane="junctionNorth_0" arrivalPos="492.80" arrivalSpeed="7.93" duration="167.00" routeLength="995.01" waitingTime="4.00" waitingCount="1" stopTime="0.00" timeLoss="47.30" rerouteNo="0" devices="tripinfo_southNorth.13 ssm_southNorth.13" vType="carCustom" speedFactor="1.24" vaporized=""/>
    <tripinfo id="southEast.13" depart="115.00" departLane="southJunction_0" departPos="5.10" departSpeed="5.82" departDelay="1.62" arrival="261.00" arrivalLane="junctionEast_0" arrivalPos="492.80" arrivalSpeed="8.14" duration="146.00" routeLength="989.53" waitingTime="0.00" waitingCount="0" stopTime="0.00" timeLoss="26.24" rerouteNo="0" devices="tripinfo_southEast.13 ssm_southEast.13" vType="carCustom" speedFactor="1.02" vaporized=""/>
    <tripinfo id="southEast.21" depart="187.00" departLane="southJunction_0" departPos="5.10" departSpeed="7.24" departDelay="0.76" arrival="261.00" arrivalLane="junctionEast_0" arrivalPos="492.80" arrivalSpeed="4.25" duration="74.00" routeLength="989.53" waitingTime="4.00" waitingCount="1" stopTime="0.00" timeLoss="13.85" rerouteNo="0" devices="tripinfo_southEast.21 ssm_southEast.21" vType="carCustom" speedFactor="0.77" vaporized="teleport"/>
    <tripinfo id="westEastTop.17" depart="84.00" departLane="westJunction_1" departPos="5.10" departSpeed="3.82" departDelay="6.03" arrival="265.00" arrivalLane="junctionEast_1" arrivalPos="492.80" arrivalSpeed="7.50" duration="181.00" routeLength="994.90" waitingTime="6.00" waitingCount="2" stopTime="0.00" timeLoss="61.56" rerouteNo="0" devices="tripinfo_westEastTop.17 ssm_westEastTop.17" vType="carCustom" speedFactor="1.02" vaporized=""/>
    <tripinfo id="southEast.14" depart="122.00" departLane="southJunction_0" departPos="5.10" departSpeed="5.13" departDelay="0.70" arrival="266.00" arrivalLane="junctionEast_0" arrivalPos="492.80" arrivalSpeed="7.30" duration="144.00" routeLength="989.53" waitingTime="0.00" waitingCount="0" stopTime="0.00" timeLoss="24.09" rerouteNo="0" devices="tripinfo_southEast.14 ssm_southEast.14" vType="carCustom" speedFactor="0.88" vaporized=""/>
    <tripinfo id="westEastTop.18" depart="88.00" departLane="westJunction_1" departPos="5.10" departSpeed="4.12" departDelay="3.32" arrival="271.00" arrivalLane="junctionEast_1" arrivalPos="492.80" arrivalSpeed="7.60" duration="183.00" routeLength="994.90" waitingTime="2.00" waitingCount="1" stopTime="0.00" timeLoss="62.85" rerouteNo="0" devices="tripinfo_westEastTop.18 ssm_westEastTop.18" vType="carCustom" speedFactor="1.06" vaporized=""/>
    <tripinfo id="southEast.15" depart="125.00" departLane="southJunction_0" departPos="5.10" departSpeed="7.04" departDelay="3.09" arrival="271.00" arrivalLane="junctionEast_0" arrivalPos="492.80" arrivalSpeed="7.59" duration="146.00" routeLength="989.53" waitingTime="0.00" waitingCount="0" stopTime="0.00" timeLoss="26.19" rerouteNo="0" devices="tripinfo_southEast.15 ssm_southEast.15" vType="carCustom" speedFactor="1.03" vaporized=""/>
    <tripinfo id="southNorth.14" depart="122.00" departLane="southJunction_1" departPos="5.10" departSpeed="7.03" departDelay="0.85" arrival="271.00" arrivalLane="junctionNorth_0" arrivalPos="492.80" arrivalSpeed="7.96" duration="149.00" routeLength="995.01" waitingTime="4.00" waitingCount="1" stopTime="0.00" timeLoss="29.28" rerouteNo="0" devices="tripinfo_southNorth.14 ssm_southNorth.14" vType="carCustom" speedFactor="0.93" vaporized=""/>
    <tripinfo id="westEastBottom0.10" depart="132.00" departLane="westJunction_0" departPos="5.10" departSpeed="7.84" departDelay="0.88" arrival="276.00" arrivalLane="junctionEast_0" arrivalPos="492.80" arrivalSpeed="7.03" duration="144.00" routeLength="994.90" waitingTime="2.00" waitingCount="1" stopTime="0.00" timeLoss="23.95" rerouteNo="0" devices="tripinfo_westEastBottom0.10 ssm_westEastBottom0.10" vType="carCustom" speedFactor="1.07" vaporized=""/>