<?xml version="1.0" encoding="UTF-8"?>

<!-- generated on 2025-04-29 08:34:52 by Eclipse SUMO sumo Version 1.20.0
<configuration xmlns:xsi="http://www.w3.org/2001/XMLSchema-instance" xsi:noNamespaceSchemaLocation="http://sumo.dlr.de/xsd/sumoConfiguration.xsd">

    <input>
        <net-file value="nets/2lane_unprotected_right/2lane_unprotected_right.net.xml"/>
        <route-files value="nets/2lane_unprotected_right/2lane_unprotected_right.rou.xml"/>
    </input>

    <output>
        <tripinfo-output value="traces/transs50f0.5_s50_f1_random/0167_tripinfo.xml"/>
        <collision-output value="traces/transs50f0.5_s50_f1_random/0167_collisions.xml"/>
        <statistic-output value="traces/transs50f0.5_s50_f1_random/0167_statistics.xml"/>
    </output>

    <processing>
        <collision.action value="teleport"/>
        <collision.check-junctions value="true"/>
        <time-to-teleport value="-1"/>
        <waiting-time-memory value="1000"/>
        <max-depart-delay value="-1"/>
        <default.speeddev value="0.1"/>
    </processing>

    <report>
        <no-warnings value="true"/>
    </report>

    <ssm_device>
        <device.ssm.probability value="1.0"/>
        <device.ssm.measures value="BR"/>
        <device.ssm.file value="/Users/finn/Code/CausalKnowledgeTransfer-4-SafeRL/traces/transs50f0.5_s50_f1_random/0167_ssm.xml"/>
    </ssm_device>

    <traci_server>
        <remote-port value="64467"/>
    </traci_server>

    <random_number>
        <random value="true"/>
    </random_number>

</configuration>
-->

<tripinfos xmlns:xsi="http://www.w3.org/2001/XMLSchema-instance" xsi:noNamespaceSchemaLocation="http://sumo.dlr.de/xsd/tripinfo_file.xsd">
    <tripinfo id="westEastBottom0.0" depart="2.00" departLane="westJunction_0" departPos="5.10" departSpeed="22.22" departDelay="0.61" arrival="49.00" arrivalLane="junctionEast_0" arrivalPos="492.80" arrivalSpeed="22.16" duration="47.00" routeLength="994.90" waitingTime="0.00" waitingCount="0" stopTime="0.00" timeLoss="1.85" rerouteNo="0" devices="tripinfo_westEastBottom0.0 ssm_westEastBottom0.0" vType="carCustom" speedFactor="0.90" vaporized=""/>
    <tripinfo id="westEastTop.0" depart="3.00" departLane="westJunction_1" departPos="5.10" departSpeed="22.22" departDelay="0.43" arrival="50.00" arrivalLane="junctionEast_1" arrivalPos="492.80" arrivalSpeed="22.08" duration="47.00" routeLength="994.90" waitingTime="0.00" waitingCount="0" stopTime="0.00" timeLoss="1.50" rerouteNo="0" devices="tripinfo_westEastTop.0 ssm_westEastTop.0" vType="carCustom" speedFactor="1.03" vaporized=""/>
    <tripinfo id="southNorth.0" depart="4.00" departLane="southJunction_1" departPos="5.10" departSpeed="22.22" departDelay="0.46" arrival="54.00" arrivalLane="junctionNorth_0" arrivalPos="492.80" arrivalSpeed="21.18" duration="50.00" routeLength="995.01" waitingTime="0.00" waitingCount="0" stopTime="0.00" timeLoss="4.75" rerouteNo="0" devices="tripinfo_southNorth.0 ssm_southNorth.0" vType="carCustom" speedFactor="1.14" vaporized=""/>
    <tripinfo id="southNorth.1" depart="6.00" departLane="southJunction_1" departPos="5.10" departSpeed="21.31" departDelay="0.60" arrival="57.00" arrivalLane="junctionNorth_0" arrivalPos="492.80" arrivalSpeed="21.96" duration="51.00" routeLength="995.01" waitingTime="0.00" waitingCount="0" stopTime="0.00" timeLoss="5.72" rerouteNo="0" devices="tripinfo_southNorth.1 ssm_southNorth.1" vType="carCustom" speedFactor="0.95" vaporized=""/>
    <tripinfo id="westEastTop.1" depart="10.00" departLane="westJunction_1" departPos="5.10" departSpeed="21.91" departDelay="0.19" arrival="59.00" arrivalLane="junctionEast_0" arrivalPos="492.80" arrivalSpeed="21.20" duration="49.00" routeLength="994.90" waitingTime="0.00" waitingCount="0" stopTime="0.00" timeLoss="3.49" rerouteNo="0" devices="tripinfo_westEastTop.1 ssm_westEastTop.1" vType="carCustom" speedFactor="1.06" vaporized=""/>
    <tripinfo id="westEastBottom0.1" depart="7.00" departLane="westJunction_0" departPos="5.10" departSpeed="21.23" departDelay="0.60" arrival="62.00" arrivalLane="junctionEast_0" arrivalPos="492.80" arrivalSpeed="21.41" duration="55.00" routeLength="994.90" waitingTime="2.00" waitingCount="1" stopTime="0.00" timeLoss="10.14" rerouteNo="0" devices="tripinfo_westEastBottom0.1 ssm_westEastBottom0.1" vType="carCustom" speedFactor="1.22" vaporized=""/>
    <tripinfo id="westEastTop.2" depart="14.00" departLane="westJunction_1" departPos="5.10" departSpeed="21.35" departDelay="0.53" arrival="62.00" arrivalLane="junctionEast_1" arrivalPos="492.80" arrivalSpeed="21.38" duration="48.00" routeLength="994.90" waitingTime="0.00" waitingCount="0" stopTime="0.00" timeLoss="2.44" rerouteNo="0" devices="tripinfo_westEastTop.2 ssm_westEastTop.2" vType="carCustom" speedFactor="0.76" vaporized=""/>
    <tripinfo id="southNorth.2" depart="9.00" departLane="southJunction_1" departPos="5.10" departSpeed="18.84" departDelay="0.42" arrival="67.00" arrivalLane="junctionNorth_0" arrivalPos="492.80" arrivalSpeed="22.09" duration="58.00" routeLength="995.01" waitingTime="0.00" waitingCount="0" stopTime="0.00" timeLoss="12.97" rerouteNo="0" devices="tripinfo_southNorth.2 ssm_southNorth.2" vType="carCustom" speedFactor="0.76" vaporized=""/>
    <tripinfo id="southEast.0" depart="16.00" departLane="southJunction_0" departPos="5.10" departSpeed="22.22" departDelay="0.99" arrival="69.00" arrivalLane="junctionEast_0" arrivalPos="492.80" arrivalSpeed="21.91" duration="53.00" routeLength="989.53" waitingTime="0.00" waitingCount="0" stopTime="0.00" timeLoss="6.82" rerouteNo="0" devices="tripinfo_southEast.0 ssm_southEast.0" vType="carCustom" speedFactor="1.04" vaporized=""/>
    <tripinfo id="southNorth.3" depart="13.00" departLane="southJunction_1" departPos="5.10" departSpeed="19.74" departDelay="0.05" arrival="70.00" arrivalLane="junctionNorth_0" arrivalPos="492.80" arrivalSpeed="20.96" duration="57.00" routeLength="995.01" waitingTime="0.00" waitingCount="0" stopTime="0.00" timeLoss="11.90" rerouteNo="0" devices="tripinfo_southNorth.3 ssm_southNorth.3" vType="carCustom" speedFactor="1.12" vaporized=""/>
    <tripinfo id="westEastTop.3" depart="17.00" departLane="westJunction_1" departPos="5.10" departSpeed="22.12" departDelay="0.26" arrival="73.00" arrivalLane="junctionEast_1" arrivalPos="492.80" arrivalSpeed="21.72" duration="56.00" routeLength="994.90" waitingTime="0.00" waitingCount="0" stopTime="0.00" timeLoss="10.71" rerouteNo="0" devices="tripinfo_westEastTop.3 ssm_westEastTop.3" vType="carCustom" speedFactor="0.92" vaporized=""/>
    <tripinfo id="southEast.1" depart="20.00" departLane="southJunction_0" departPos="5.10" departSpeed="21.09" departDelay="0.92" arrival="74.00" arrivalLane="junctionEast_0" arrivalPos="492.80" arrivalSpeed="21.26" duration="54.00" routeLength="989.53" waitingTime="0.00" waitingCount="0" stopTime="0.00" timeLoss="7.39" rerouteNo="0" devices="tripinfo_southEast.1 ssm_southEast.1" vType="carCustom" speedFactor="1.09" vaporized=""/>
    <tripinfo id="westEastTop.4" depart="19.00" departLane="westJunction_1" departPos="5.10" departSpeed="21.46" departDelay="1.11" arrival="76.00" arrivalLane="junctionEast_0" arrivalPos="492.80" arrivalSpeed="21.22" duration="57.00" routeLength="994.90" waitingTime="0.00" waitingCount="0" stopTime="0.00" timeLoss="11.74" rerouteNo="0" devices="tripinfo_westEastTop.4 ssm_westEastTop.4" vType="carCustom" speedFactor="0.93" vaporized=""/>
    <tripinfo id="southNorth.4" depart="23.00" departLane="southJunction_1" departPos="5.10" departSpeed="21.65" departDelay="0.66" arrival="77.00" arrivalLane="junctionNorth_0" arrivalPos="492.80" arrivalSpeed="21.72" duration="54.00" routeLength="995.01" waitingTime="0.00" waitingCount="0" stopTime="0.00" timeLoss="8.48" rerouteNo="0" devices="tripinfo_southNorth.4 ssm_southNorth.4" vType="carCustom" speedFactor="1.12" vaporized=""/>
    <tripinfo id="westEastTop.5" depart="21.00" departLane="westJunction_1" departPos="5.10" departSpeed="18.88" departDelay="0.65" arrival="83.00" arrivalLane="junctionEast_1" arrivalPos="492.80" arrivalSpeed="21.49" duration="62.00" routeLength="994.90" waitingTime="1.00" waitingCount="1" stopTime="0.00" timeLoss="16.61" rerouteNo="0" devices="tripinfo_westEastTop.5 ssm_westEastTop.5" vType="carCustom" speedFactor="0.76" vaporized=""/>
    <tripinfo id="southEast.2" depart="30.00" departLane="southJunction_0" departPos="5.10" departSpeed="22.12" departDelay="0.58" arrival="83.00" arrivalLane="junctionEast_0" arrivalPos="492.80" arrivalSpeed="21.43" duration="53.00" routeLength="989.53" waitingTime="0.00" waitingCount="0" stopTime="0.00" timeLoss="7.58" rerouteNo="0" devices="tripinfo_southEast.2 ssm_southEast.2" vType="carCustom" speedFactor="0.93" vaporized=""/>
    <tripinfo id="westEastTop.6" depart="26.00" departLane="westJunction_1" departPos="5.10" departSpeed="18.14" departDelay="0.85" arrival="86.00" arrivalLane="junctionEast_0" arrivalPos="492.80" arrivalSpeed="21.50" duration="60.00" routeLength="994.90" waitingTime="0.00" waitingCount="0" stopTime="0.00" timeLoss="14.57" rerouteNo="0" devices="tripinfo_westEastTop.6 ssm_westEastTop.6" vType="carCustom" speedFactor="0.99" vaporized=""/>
    <tripinfo id="southNorth.5" depart="30.00" departLane="southJunction_1" departPos="5.10" departSpeed="22.05" departDelay="0.35" arrival="88.00" arrivalLane="junctionNorth_0" arrivalPos="492.80" arrivalSpeed="21.55" duration="58.00" routeLength="995.01" waitingTime="5.00" waitingCount="1" stopTime="0.00" timeLoss="12.11" rerouteNo="0" devices="tripinfo_southNorth.5 ssm_southNorth.5" vType="carCustom" speedFactor="0.98" vaporized=""/>
    <tripinfo id="westEastBottom0.2" depart="42.00" departLane="westJunction_0" departPos="5.10" departSpeed="22.22" departDelay="0.45" arrival="90.00" arrivalLane="junctionEast_0" arrivalPos="492.80" arrivalSpeed="21.99" duration="48.00" routeLength="994.90" waitingTime="0.00" waitingCount="0" stopTime="0.00" timeLoss="3.05" rerouteNo="0" devices="tripinfo_westEastBottom0.2 ssm_westEastBottom0.2" vType="carCustom" speedFactor="1.03" vaporized=""/>
    <tripinfo id="westEastTop.7" depart="28.00" departLane="westJunction_1" departPos="5.10" departSpeed="22.19" departDelay="1.26" arrival="93.00" arrivalLane="junctionEast_0" arrivalPos="492.80" arrivalSpeed="21.39" duration="65.00" routeLength="994.90" waitingTime="1.00" waitingCount="1" stopTime="0.00" timeLoss="20.12" rerouteNo="0" devices="tripinfo_westEastTop.7 ssm_westEastTop.7" vType="carCustom" speedFactor="1.13" vaporized=""/>
    <tripinfo id="southNorth.6" depart="46.00" departLane="southJunction_1" departPos="5.10" departSpeed="21.33" departDelay="0.01" arrival="95.00" arrivalLane="junctionNorth_0" arrivalPos="492.80" arrivalSpeed="20.97" duration="49.00" routeLength="995.01" waitingTime="0.00" waitingCount="0" stopTime="0.00" timeLoss="3.49" rerouteNo="0" devices="tripinfo_southNorth.6 ssm_southNorth.6" vType="carCustom" speedFactor="1.00" vaporized=""/>
    <tripinfo id="westEastTop.8" depart="30.00" departLane="westJunction_1" departPos="5.10" departSpeed="18.73" departDelay="2.47" arrival="96.00" arrivalLane="junctionEast_0" arrivalPos="492.80" arrivalSpeed="20.92" duration="66.00" routeLength="994.90" waitingTime="0.00" waitingCount="0" stopTime="0.00" timeLoss="21.06" rerouteNo="0" devices="tripinfo_westEastTop.8 ssm_westEastTop.8" vType="carCustom" speedFactor="1.08" vaporized=""/>
    <tripinfo id="westEastTop.9" depart="42.00" departLane="westJunction_1" departPos="5.10" departSpeed="19.48" departDelay="0.59" arrival="103.00" arrivalLane="junctionEast_0" arrivalPos="492.80" arrivalSpeed="22.12" duration="61.00" routeLength="994.90" waitingTime="1.00" waitingCount="1" stopTime="0.00" timeLoss="15.85" rerouteNo="0" devices="tripinfo_westEastTop.9 ssm_westEastTop.9" vType="carCustom" speedFactor="0.93" vaporized=""/>
    <tripinfo id="westEastTop.10" depart="44.00" departLane="westJunction_1" departPos="5.10" departSpeed="22.19" departDelay="1.12" arrival="106.00" arrivalLane="junctionEast_0" arrivalPos="492.80" arrivalSpeed="21.68" duration="62.00" routeLength="994.90" waitingTime="0.00" waitingCount="0" stopTime="0.00" timeLoss="16.26" rerouteNo="0" devices="tripinfo_westEastTop.10 ssm_westEastTop.10" vType="carCustom" speedFactor="0.84" vaporized=""/>
    <tripinfo id="westEastTop.11" depart="49.00" departLane="westJunction_1" departPos="5.10" departSpeed="20.23" departDelay="0.19" arrival="108.00" arrivalLane="junctionEast_0" arrivalPos="492.80" arrivalSpeed="21.68" duration="59.00" routeLength="994.90" waitingTime="0.00" waitingCount="0" stopTime="0.00" timeLoss="14.09" rerouteNo="0" devices="tripinfo_westEastTop.11 ssm_westEastTop.11" vType="carCustom" speedFactor="1.03" vaporized=""/>
    <tripinfo id="westEastTop.12" depart="51.00" departLane="westJunction_1" departPos="5.10" departSpeed="20.97" departDelay="0.67" arrival="111.00" arrivalLane="junctionEast_0" arrivalPos="492.80" arrivalSpeed="21.28" duration="60.00" routeLength="994.90" waitingTime="0.00" waitingCount="0" stopTime="0.00" timeLoss="14.98" rerouteNo="0" devices="tripinfo_westEastTop.12 ssm_westEastTop.12" vType="carCustom" speedFactor="0.85" vaporized=""/>
    <tripinfo id="southEast.3" depart="56.00" departLane="southJunction_0" departPos="5.10" departSpeed="5.01" departDelay="0.61" arrival="112.00" arrivalLane="junctionEast_1" arrivalPos="492.80" arrivalSpeed="21.13" duration="56.00" routeLength="989.53" waitingTime="0.00" waitingCount="0" stopTime="0.00" timeLoss="9.75" rerouteNo="0" devices="tripinfo_southEast.3 ssm_southEast.3" vType="carCustom" speedFactor="0.98" vaporized=""/>
    <tripinfo id="southNorth.7" depart="65.00" departLane="southJunction_1" departPos="5.10" departSpeed="21.05" departDelay="0.58" arrival="114.00" arrivalLane="junctionNorth_0" arrivalPos="492.80" arrivalSpeed="22.17" duration="49.00" routeLength="995.01" waitingTime="0.00" waitingCount="0" stopTime="0.00" timeLoss="3.68" rerouteNo="0" devices="tripinfo_southNorth.7 ssm_southNorth.7" vType="carCustom" speedFactor="0.94" vaporized=""/>
    <tripinfo id="westEastTop.13" depart="53.00" departLane="westJunction_1" departPos="5.10" departSpeed="18.88" departDelay="2.13" arrival="115.00" arrivalLane="junctionEast_1" arrivalPos="492.80" arrivalSpeed="20.98" duration="62.00" routeLength="994.90" waitingTime="0.00" waitingCount="0" stopTime="0.00" timeLoss="16.57" rerouteNo="0" devices="tripinfo_westEastTop.13 ssm_westEastTop.13" vType="carCustom" speedFactor="0.80" vaporized=""/>
    <tripinfo id="westEastTop.14" depart="55.00" departLane="westJunction_1" departPos="5.10" departSpeed="17.03" departDelay="1.46" arrival="118.00" arrivalLane="junctionEast_1" arrivalPos="492.80" arrivalSpeed="21.75" duration="63.00" routeLength="994.90" waitingTime="0.00" waitingCount="0" stopTime="0.00" timeLoss="17.27" rerouteNo="0" devices="tripinfo_westEastTop.14 ssm_westEastTop.14" vType="carCustom" speedFactor="1.19" vaporized=""/>
    <tripinfo id="southEast.4" depart="63.00" departLane="southJunction_0" departPos="5.10" departSpeed="18.65" departDelay="0.11" arrival="118.00" arrivalLane="junctionEast_0" arrivalPos="492.80" arrivalSpeed="21.00" duration="55.00" routeLength="989.53" waitingTime="0.00" waitingCount="0" stopTime="0.00" timeLoss="9.54" rerouteNo="0" devices="tripinfo_southEast.4 ssm_southEast.4" vType="carCustom" speedFactor="1.09" vaporized=""/>
    <tripinfo id="westEastTop.15" depart="59.00" departLane="westJunction_1" departPos="5.10" departSpeed="16.79" departDelay="0.78" arrival="122.00" arrivalLane="junctionEast_0" arrivalPos="492.80" arrivalSpeed="21.33" duration="63.00" routeLength="994.90" waitingTime="1.00" waitingCount="1" stopTime="0.00" timeLoss="18.11" rerouteNo="0" devices="tripinfo_westEastTop.15 ssm_westEastTop.15" vType="carCustom" speedFactor="1.20" vaporized=""/>
    <tripinfo id="westEastTop.16" depart="61.00" departLane="westJunction_1" departPos="5.10" departSpeed="18.47" departDelay="0.01" arrival="125.00" arrivalLane="junctionEast_1" arrivalPos="492.80" arrivalSpeed="21.74" duration="64.00" routeLength="994.90" waitingTime="0.00" waitingCount="0" stopTime="0.00" timeLoss="18.84" rerouteNo="0" devices="tripinfo_westEastTop.16 ssm_westEastTop.16" vType="carCustom" speedFactor="0.69" vaporized=""/>
    <tripinfo id="southEast.5" depart="72.00" departLane="southJunction_0" departPos="5.10" departSpeed="21.01" departDelay="0.67" arrival="125.00" arrivalLane="junctionEast_0" arrivalPos="492.80" arrivalSpeed="21.51" duration="53.00" routeLength="989.53" waitingTime="0.00" waitingCount="0" stopTime="0.00" timeLoss="7.22" rerouteNo="0" devices="tripinfo_southEast.5 ssm_southEast.5" vType="carCustom" speedFactor="1.06" vaporized=""/>
    <tripinfo id="westEastTop.17" depart="64.00" departLane="westJunction_1" departPos="5.10" departSpeed="16.70" departDelay="0.60" arrival="128.00" arrivalLane="junctionEast_0" arrivalPos="492.80" arrivalSpeed="21.64" duration="64.00" routeLength="994.90" waitingTime="0.00" waitingCount="0" stopTime="0.00" timeLoss="18.76" rerouteNo="0" devices="tripinfo_westEastTop.17 ssm_westEastTop.17" vType="carCustom" speedFactor="0.95" vaporized=""/>
    <tripinfo id="westEastTop.18" depart="78.00" departLane="westJunction_1" departPos="5.10" departSpeed="17.21" departDelay="0.23" arrival="131.00" arrivalLane="junctionEast_0" arrivalPos="492.80" arrivalSpeed="21.39" duration="53.00" routeLength="994.90" waitingTime="0.00" waitingCount="0" stopTime="0.00" timeLoss="7.40" rerouteNo="0" devices="tripinfo_westEastTop.18 ssm_westEastTop.18" vType="carCustom" speedFactor="0.93" vaporized=""/>
    <tripinfo id="westEastTop.19" depart="80.00" departLane="westJunction_1" departPos="5.10" departSpeed="21.55" departDelay="1.24" arrival="133.00" arrivalLane="junctionEast_0" arrivalPos="492.80" arrivalSpeed="21.60" duration="53.00" routeLength="994.90" waitingTime="0.00" waitingCount="0" stopTime="0.00" timeLoss="8.21" rerouteNo="0" devices="tripinfo_westEastTop.19 ssm_westEastTop.19" vType="carCustom" speedFactor="1.04" vaporized=""/>
    <tripinfo id="westEastTop.20" depart="83.00" departLane="westJunction_1" departPos="5.10" departSpeed="19.47" departDelay="0.43" arrival="136.00" arrivalLane="junctionEast_0" arrivalPos="492.80" arrivalSpeed="21.95" duration="53.00" routeLength="994.90" waitingTime="0.00" waitingCount="0" stopTime="0.00" timeLoss="7.92" rerouteNo="0" devices="tripinfo_westEastTop.20 ssm_westEastTop.20" vType="carCustom" speedFactor="1.22" vaporized=""/>
    <tripinfo id="westEastTop.21" depart="85.00" departLane="westJunction_1" departPos="5.10" departSpeed="19.67" departDelay="2.06" arrival="138.00" arrivalLane="junctionEast_1" arrivalPos="492.80" arrivalSpeed="22.10" duration="53.00" routeLength="994.90" waitingTime="0.00" waitingCount="0" stopTime="0.00" timeLoss="8.07" rerouteNo="0" devices="tripinfo_westEastTop.21 ssm_westEastTop.21" vType="carCustom" speedFactor="1.10" vaporized=""/>
    <tripinfo id="southEast.6" depart="85.00" departLane="southJunction_0" departPos="5.10" departSpeed="21.88" departDelay="0.92" arrival="139.00" arrivalLane="junctionEast_0" arrivalPos="492.80" arrivalSpeed="21.43" duration="54.00" routeLength="989.53" waitingTime="0.00" waitingCount="0" stopTime="0.00" timeLoss="7.82" rerouteNo="0" devices="tripinfo_southEast.6 ssm_southEast.6" vType="carCustom" speedFactor="1.04" vaporized=""/>
    <tripinfo id="westEastTop.22" depart="87.00" departLane="westJunction_1" departPos="5.10" departSpeed="17.14" departDelay="0.17" arrival="141.00" arrivalLane="junctionEast_1" arrivalPos="492.80" arrivalSpeed="21.92" duration="54.00" routeLength="994.90" waitingTime="0.00" waitingCount="0" stopTime="0.00" timeLoss="8.94" rerouteNo="0" devices="tripinfo_westEastTop.22 ssm_westEastTop.22" vType="carCustom" speedFactor="0.96" vaporized=""/>
    <tripinfo id="southNorth.8" depart="96.00" departLane="southJunction_1" departPos="5.10" departSpeed="22.22" departDelay="0.64" arrival="143.00" arrivalLane="junctionNorth_0" arrivalPos="492.80" arrivalSpeed="22.15" duration="47.00" routeLength="995.01" waitingTime="0.00" waitingCount="0" stopTime="0.00" timeLoss="1.84" rerouteNo="0" devices="tripinfo_southNorth.8 ssm_southNorth.8" vType="carCustom" speedFactor="0.98" vaporized=""/>
    <tripinfo id="southEast.7" depart="97.00" departLane="southJunction_0" departPos="5.10" departSpeed="21.00" departDelay="0.93" arrival="149.00" arrivalLane="junctionEast_0" arrivalPos="492.80" arrivalSpeed="21.99" duration="52.00" routeLength="989.53" waitingTime="0.00" waitingCount="0" stopTime="0.00" timeLoss="6.04" rerouteNo="0" devices="tripinfo_southEast.7 ssm_southEast.7" vType="carCustom" speedFactor="1.13" vaporized=""/>
    <tripinfo id="westEastTop.23" depart="89.00" departLane="westJunction_1" departPos="5.10" departSpeed="15.25" departDelay="0.86" arrival="151.00" arrivalLane="junctionEast_1" arrivalPos="492.80" arrivalSpeed="21.33" duration="62.00" routeLength="994.90" waitingTime="5.00" waitingCount="1" stopTime="0.00" timeLoss="16.72" rerouteNo="0" devices="tripinfo_westEastTop.23 ssm_westEastTop.23" vType="carCustom" speedFactor="0.94" vaporized=""/>
    <tripinfo id="westEastTop.24" depart="100.00" departLane="westJunction_1" departPos="5.10" departSpeed="19.59" departDelay="0.60" arrival="154.00" arrivalLane="junctionEast_0" arrivalPos="492.80" arrivalSpeed="21.11" duration="54.00" routeLength="994.90" waitingTime="0.00" waitingCount="0" stopTime="0.00" timeLoss="8.76" rerouteNo="0" devices="tripinfo_westEastTop.24 ssm_westEastTop.24" vType="carCustom" speedFactor="1.16" vaporized=""/>
    <tripinfo id="southNorth.9" depart="98.00" departLane="southJunction_1" departPos="5.10" departSpeed="21.68" departDelay="0.28" arrival="157.00" arrivalLane="junctionNorth_0" arrivalPos="492.80" arrivalSpeed="21.79" duration="59.00" routeLength="995.01" waitingTime="5.00" waitingCount="1" stopTime="0.00" timeLoss="12.88" rerouteNo="0" devices="tripinfo_southNorth.9 ssm_southNorth.9" vType="carCustom" speedFactor="1.06" vaporized=""/>
    <tripinfo id="southEast.8" depart="106.00" departLane="southJunction_0" departPos="5.10" departSpeed="21.05" departDelay="0.99" arrival="159.00" arrivalLane="junctionEast_0" arrivalPos="492.80" arrivalSpeed="21.10" duration="53.00" routeLength="989.53" waitingTime="0.00" waitingCount="0" stopTime="0.00" timeLoss="7.71" rerouteNo="0" devices="tripinfo_southEast.8 ssm_southEast.8" vType="carCustom" speedFactor="0.83" vaporized=""/>
    <tripinfo id="westEastTop.25" depart="102.00" departLane="westJunction_1" departPos="5.10" departSpeed="21.00" departDelay="1.23" arrival="161.00" arrivalLane="junctionEast_1" arrivalPos="492.80" arrivalSpeed="21.68" duration="59.00" routeLength="994.90" waitingTime="1.00" waitingCount="1" stopTime="0.00" timeLoss="13.52" rerouteNo="0" devices="tripinfo_westEastTop.25 ssm_westEastTop.25" vType="carCustom" speedFactor="0.97" vaporized=""/>
    <tripinfo id="southNorth.10" depart="110.00" departLane="southJunction_1" departPos="5.10" departSpeed="21.98" departDelay="0.18" arrival="166.00" arrivalLane="junctionNorth_0" arrivalPos="492.80" arrivalSpeed="21.96" duration="56.00" routeLength="995.01" waitingTime="0.00" waitingCount="0" stopTime="0.00" timeLoss="10.79" rerouteNo="0" devices="tripinfo_southNorth.10 ssm_southNorth.10" vType="carCustom" speedFactor="0.91" vaporized=""/>
    <tripinfo id="southNorth.11" depart="116.00" departLane="southJunction_1" departPos="5.10" departSpeed="21.31" departDelay="0.25" arrival="169.00" arrivalLane="junctionNorth_0" arrivalPos="492.80" arrivalSpeed="21.51" duration="53.00" routeLength="995.01" waitingTime="0.00" waitingCount="0" stopTime="0.00" timeLoss="7.80" rerouteNo="0" devices="tripinfo_southNorth.11 ssm_southNorth.11" vType="carCustom" speedFactor="0.78" vaporized=""/>
    <tripinfo id="southEast.9" depart="119.00" departLane="southJunction_0" departPos="5.10" departSpeed="21.37" departDelay="0.42" arrival="171.00" arrivalLane="junctionEast_0" arrivalPos="492.80" arrivalSpeed="21.20" duration="52.00" routeLength="989.53" waitingTime="0.00" waitingCount="0" stopTime="0.00" timeLoss="6.57" rerouteNo="0" devices="tripinfo_southEast.9 ssm_southEast.9" vType="carCustom" speedFactor="1.16" vaporized=""/>
    <tripinfo id="westEastTop.26" depart="112.00" departLane="westJunction_1" departPos="5.10" departSpeed="21.06" departDelay="0.59" arrival="172.00" arrivalLane="junctionEast_1" arrivalPos="492.80" arrivalSpeed="21.86" duration="60.00" routeLength="994.90" waitingTime="6.00" waitingCount="1" stopTime="0.00" timeLoss="14.41" rerouteNo="0" devices="tripinfo_westEastTop.26 ssm_westEastTop.26" vType="carCustom" speedFactor="0.93" vaporized=""/>
    <tripinfo id="westEastTop.27" depart="115.00" departLane="westJunction_1" departPos="5.10" departSpeed="21.28" departDelay="0.14" arrival="175.00" arrivalLane="junctionEast_0" arrivalPos="492.80" arrivalSpeed="22.09" duration="60.00" routeLength="994.90" waitingTime="2.00" waitingCount="1" stopTime="0.00" timeLoss="14.54" rerouteNo="0" devices="tripinfo_westEastTop.27 ssm_westEastTop.27" vType="carCustom" speedFactor="0.81" vaporized=""/>
    <tripinfo id="southNorth.12" depart="119.00" departLane="southJunction_1" departPos="5.10" departSpeed="21.79" departDelay="0.85" arrival="177.00" arrivalLane="junctionNorth_0" arrivalPos="492.80" arrivalSpeed="21.91" duration="58.00" routeLength="995.01" waitingTime="1.00" waitingCount="1" stopTime="0.00" timeLoss="12.49" rerouteNo="0" devices="tripinfo_southNorth.12 ssm_southNorth.12" vType="carCustom" speedFactor="1.02" vaporized=""/>
    <tripinfo id="southEast.10" depart="127.00" departLane="southJunction_0" departPos="5.10" departSpeed="21.23" departDelay="0.21" arrival="180.00" arrivalLane="junctionEast_0" arrivalPos="492.80" arrivalSpeed="21.34" duration="53.00" routeLength="989.53" waitingTime="0.00" waitingCount="0" stopTime="0.00" timeLoss="7.04" rerouteNo="0" devices="tripinfo_southEast.10 ssm_southEast.10" vType="carCustom" speedFactor="1.01" vaporized=""/>
    <tripinfo id="westEastTop.28" depart="117.00" departLane="westJunction_1" departPos="5.10" departSpeed="21.52" departDelay="0.76" arrival="182.00" arrivalLane="junctionEast_1" arrivalPos="492.80" arrivalSpeed="21.14" duration="65.00" routeLength="994.90" waitingTime="1.00" waitingCount="1" stopTime="0.00" timeLoss="20.04" rerouteNo="0" devices="tripinfo_westEastTop.28 ssm_westEastTop.28" vType="carCustom" speedFactor="0.83" vaporized=""/>
    <tripinfo id="westEastBottom0.3" depart="126.00" departLane="westJunction_0" departPos="5.10" departSpeed="22.22" departDelay="0.41" arrival="183.00" arrivalLane="junctionEast_0" arrivalPos="492.80" arrivalSpeed="20.99" duration="57.00" routeLength="994.90" waitingTime="0.00" waitingCount="0" stopTime="0.00" timeLoss="11.38" rerouteNo="0" devices="tripinfo_westEastBottom0.3 ssm_westEastBottom0.3" vType="carCustom" speedFactor="0.88" vaporized=""/>
    <tripinfo id="westEastTop.29" depart="119.00" departLane="westJunction_1" departPos="5.10" departSpeed="18.37" departDelay="2.05" arrival="185.00" arrivalLane="junctionEast_1" arrivalPos="492.80" arrivalSpeed="21.87" duration="66.00" routeLength="994.90" waitingTime="0.00" waitingCount="0" stopTime="0.00" timeLoss="20.94" rerouteNo="0" devices="tripinfo_westEastTop.29 ssm_westEastTop.29" vType="carCustom" speedFactor="0.92" vaporized=""/>
    <tripinfo id="westEastBottom0.4" depart="128.00" departLane="westJunction_0" departPos="5.10" departSpeed="21.05" departDelay="1.44" arrival="185.00" arrivalLane="junctionEast_0" arrivalPos="492.80" arrivalSpeed="21.54" duration="57.00" routeLength="994.90" waitingTime="0.00" waitingCount="0" stopTime="0.00" timeLoss="12.23" rerouteNo="0" devices="tripinfo_westEastBottom0.4 ssm_westEastBottom0.4" vType="carCustom" speedFactor="1.05" vaporized=""/>
    <tripinfo id="southEast.11" depart="130.00" departLane="southJunction_0" departPos="5.10" departSpeed="21.06" departDelay="0.95" arrival="188.00" arrivalLane="junctionEast_0" arrivalPos="492.80" arrivalSpeed="22.06" duration="58.00" routeLength="989.53" waitingTime="0.00" waitingCount="0" stopTime="0.00" timeLoss="12.56" rerouteNo="0" devices="tripinfo_southEast.11 ssm_southEast.11" vType="carCustom" speedFactor="0.83" vaporized=""/>
    <tripinfo id="southNorth.13" depart="130.00" departLane="southJunction_1" departPos="5.10" departSpeed="20.97" departDelay="0.59" arrival="188.00" arrivalLane="junctionNorth_0" arrivalPos="492.80" arrivalSpeed="21.51" duration="58.00" routeLength="995.01" waitingTime="2.00" waitingCount="1" stopTime="0.00" timeLoss="12.43" rerouteNo="0" devices="tripinfo_southNorth.13 ssm_southNorth.13" vType="carCustom" speedFactor="1.00" vaporized=""/>
    <tripinfo id="westEastTop.30" depart="125.00" departLane="westJunction_1" departPos="5.10" departSpeed="19.36" departDelay="0.90" arrival="192.00" arrivalLane="junctionEast_1" arrivalPos="492.80" arrivalSpeed="21.86" duration="67.00" routeLength="994.90" waitingTime="1.00" waitingCount="1" stopTime="0.00" timeLoss="21.41" rerouteNo="0" devices="tripinfo_westEastTop.30 ssm_westEastTop.30" vType="carCustom" speedFactor="1.08" vaporized=""/>
    <tripinfo id="westEastBottom0.5" depart="132.00" departLane="westJunction_0" departPos="5.10" departSpeed="18.71" departDelay="0.14" arrival="192.00" arrivalLane="junctionEast_0" arrivalPos="492.80" arrivalSpeed="21.27" duration="60.00" routeLength="994.90" waitingTime="1.00" waitingCount="1" stopTime="0.00" timeLoss="14.97" rerouteNo="0" devices="tripinfo_westEastBottom0.5 ssm_westEastBottom0.5" vType="carCustom" speedFactor="1.10" vaporized=""/>