<?xml version="1.0" encoding="UTF-8"?>

<!-- generated on 2025-04-29 08:41:41 by Eclipse SUMO sumo Version 1.20.0
<configuration xmlns:xsi="http://www.w3.org/2001/XMLSchema-instance" xsi:noNamespaceSchemaLocation="http://sumo.dlr.de/xsd/sumoConfiguration.xsd">

    <input>
        <net-file value="nets/2lane_unprotected_right/2lane_unprotected_right.net.xml"/>
        <route-files value="nets/2lane_unprotected_right/2lane_unprotected_right.rou.xml"/>
    </input>

    <output>
        <tripinfo-output value="traces/transs50f0.5_s50_f1_random/0172_tripinfo.xml"/>
        <collision-output value="traces/transs50f0.5_s50_f1_random/0172_collisions.xml"/>
        <statistic-output value="traces/transs50f0.5_s50_f1_random/0172_statistics.xml"/>
    </output>

    <processing>
        <collision.action value="teleport"/>
        <collision.check-junctions value="true"/>
        <time-to-teleport value="-1"/>
        <waiting-time-memory value="1000"/>
        <max-depart-delay value="-1"/>
        <default.speeddev value="0.1"/>
    </processing>

    <report>
        <no-warnings value="true"/>
    </report>

    <ssm_device>
        <device.ssm.probability value="1.0"/>
        <device.ssm.measures value="BR"/>
        <device.ssm.file value="/Users/finn/Code/CausalKnowledgeTransfer-4-SafeRL/traces/transs50f0.5_s50_f1_random/0172_ssm.xml"/>
    </ssm_device>

    <traci_server>
        <remote-port value="64530"/>
    </traci_server>

    <random_number>
        <random value="true"/>
    </random_number>

</configuration>
-->

<tripinfos xmlns:xsi="http://www.w3.org/2001/XMLSchema-instance" xsi:noNamespaceSchemaLocation="http://sumo.dlr.de/xsd/tripinfo_file.xsd">
    <tripinfo id="westEastTop.0" depart="1.00" departLane="westJunction_1" departPos="5.10" departSpeed="27.78" departDelay="0.05" arrival="38.00" arrivalLane="junctionEast_1" arrivalPos="492.80" arrivalSpeed="27.66" duration="37.00" routeLength="994.90" waitingTime="0.00" waitingCount="0" stopTime="0.00" timeLoss="0.76" rerouteNo="0" devices="tripinfo_westEastTop.0 ssm_westEastTop.0" vType="carCustom" speedFactor="1.13" vaporized=""/>
    <tripinfo id="westEastTop.1" depart="3.00" departLane="westJunction_1" departPos="5.10" departSpeed="27.78" departDelay="0.87" arrival="46.00" arrivalLane="junctionEast_1" arrivalPos="492.80" arrivalSpeed="27.33" duration="43.00" routeLength="994.90" waitingTime="0.00" waitingCount="0" stopTime="0.00" timeLoss="6.37" rerouteNo="0" devices="tripinfo_westEastTop.1 ssm_westEastTop.1" vType="carCustom" speedFactor="1.00" vaporized=""/>
    <tripinfo id="westEastBottom0.0" depart="6.00" departLane="westJunction_0" departPos="5.10" departSpeed="27.78" departDelay="0.00" arrival="47.00" arrivalLane="junctionEast_0" arrivalPos="492.80" arrivalSpeed="27.68" duration="41.00" routeLength="994.90" waitingTime="0.00" waitingCount="0" stopTime="0.00" timeLoss="4.38" rerouteNo="0" devices="tripinfo_westEastBottom0.0 ssm_westEastBottom0.0" vType="carCustom" speedFactor="1.02" vaporized=""/>
    <tripinfo id="westEastTop.2" depart="15.00" departLane="westJunction_1" departPos="5.10" departSpeed="21.88" departDelay="0.04" arrival="54.00" arrivalLane="junctionEast_1" arrivalPos="492.80" arrivalSpeed="26.70" duration="39.00" routeLength="994.90" waitingTime="0.00" waitingCount="0" stopTime="0.00" timeLoss="2.56" rerouteNo="0" devices="tripinfo_westEastTop.2 ssm_westEastTop.2" vType="carCustom" speedFactor="0.97" vaporized=""/>
    <tripinfo id="southEast.0" depart="17.00" departLane="southJunction_0" departPos="5.10" departSpeed="27.78" departDelay="0.85" arrival="60.00" arrivalLane="junctionEast_0" arrivalPos="492.80" arrivalSpeed="26.92" duration="43.00" routeLength="989.53" waitingTime="0.00" waitingCount="0" stopTime="0.00" timeLoss="5.43" rerouteNo="0" devices="tripinfo_southEast.0 ssm_southEast.0" vType="carCustom" speedFactor="1.08" vaporized=""/>
    <tripinfo id="westEastTop.3" depart="17.00" departLane="westJunction_1" departPos="5.10" departSpeed="25.33" departDelay="1.66" arrival="61.00" arrivalLane="junctionEast_1" arrivalPos="492.80" arrivalSpeed="27.44" duration="44.00" routeLength="994.90" waitingTime="0.00" waitingCount="0" stopTime="0.00" timeLoss="7.88" rerouteNo="0" devices="tripinfo_westEastTop.3 ssm_westEastTop.3" vType="carCustom" speedFactor="0.98" vaporized=""/>
    <tripinfo id="westEastTop.4" depart="19.00" departLane="westJunction_1" departPos="5.10" departSpeed="20.13" departDelay="3.34" arrival="68.00" arrivalLane="junctionEast_1" arrivalPos="492.80" arrivalSpeed="27.23" duration="49.00" routeLength="994.90" waitingTime="0.00" waitingCount="0" stopTime="0.00" timeLoss="12.74" rerouteNo="0" devices="tripinfo_westEastTop.4 ssm_westEastTop.4" vType="carCustom" speedFactor="0.94" vaporized=""/>
    <tripinfo id="westEastBottom0.1" depart="26.00" departLane="westJunction_0" departPos="5.10" departSpeed="23.48" departDelay="0.15" arrival="75.00" arrivalLane="junctionEast_1" arrivalPos="492.80" arrivalSpeed="27.22" duration="49.00" routeLength="994.90" waitingTime="0.00" waitingCount="0" stopTime="0.00" timeLoss="12.38" rerouteNo="0" devices="tripinfo_westEastBottom0.1 ssm_westEastBottom0.1" vType="carCustom" speedFactor="1.11" vaporized=""/>
    <tripinfo id="westEastTop.5" depart="21.00" departLane="westJunction_1" departPos="5.10" departSpeed="14.91" departDelay="1.33" arrival="81.00" arrivalLane="junctionEast_1" arrivalPos="492.80" arrivalSpeed="27.73" duration="60.00" routeLength="994.90" waitingTime="0.00" waitingCount="0" stopTime="0.00" timeLoss="23.78" rerouteNo="0" devices="tripinfo_westEastTop.5 ssm_westEastTop.5" vType="carCustom" speedFactor="0.99" vaporized=""/>
    <tripinfo id="westEastBottom0.2" depart="34.00" departLane="westJunction_0" departPos="5.10" departSpeed="27.78" departDelay="0.86" arrival="87.00" arrivalLane="junctionEast_1" arrivalPos="492.80" arrivalSpeed="27.63" duration="53.00" routeLength="994.90" waitingTime="0.00" waitingCount="0" stopTime="0.00" timeLoss="16.90" rerouteNo="0" devices="tripinfo_westEastBottom0.2 ssm_westEastBottom0.2" vType="carCustom" speedFactor="1.01" vaporized=""/>
    <tripinfo id="westEastTop.6" depart="23.00" departLane="westJunction_1" departPos="5.10" departSpeed="10.20" departDelay="2.66" arrival="93.00" arrivalLane="junctionEast_1" arrivalPos="492.80" arrivalSpeed="27.56" duration="70.00" routeLength="994.90" waitingTime="0.00" waitingCount="0" stopTime="0.00" timeLoss="33.86" rerouteNo="0" devices="tripinfo_westEastTop.6 ssm_westEastTop.6" vType="carCustom" speedFactor="1.02" vaporized=""/>
    <tripinfo id="westEastBottom0.3" depart="43.00" departLane="westJunction_0" departPos="5.10" departSpeed="16.30" departDelay="0.06" arrival="99.00" arrivalLane="junctionEast_1" arrivalPos="492.80" arrivalSpeed="27.77" duration="56.00" routeLength="994.90" waitingTime="0.00" waitingCount="0" stopTime="0.00" timeLoss="19.56" rerouteNo="0" devices="tripinfo_westEastBottom0.3 ssm_westEastBottom0.3" vType="carCustom" speedFactor="0.85" vaporized=""/>
    <tripinfo id="westEastBottom0.4" depart="45.00" departLane="westJunction_0" departPos="5.10" departSpeed="17.09" departDelay="0.86" arrival="104.00" arrivalLane="junctionEast_1" arrivalPos="492.80" arrivalSpeed="26.93" duration="59.00" routeLength="994.90" waitingTime="0.00" waitingCount="0" stopTime="0.00" timeLoss="22.75" rerouteNo="0" devices="tripinfo_westEastBottom0.4 ssm_westEastBottom0.4" vType="carCustom" speedFactor="0.85" vaporized=""/>
    <tripinfo id="southNorth.0" depart="62.00" departLane="southJunction_1" departPos="5.10" departSpeed="27.78" departDelay="0.64" arrival="104.00" arrivalLane="junctionNorth_0" arrivalPos="492.80" arrivalSpeed="27.52" duration="42.00" routeLength="995.01" waitingTime="0.00" waitingCount="0" stopTime="0.00" timeLoss="5.80" rerouteNo="0" devices="tripinfo_southNorth.0 ssm_southNorth.0" vType="carCustom" speedFactor="0.82" vaporized=""/>
    <tripinfo id="southEast.1" depart="56.00" departLane="southJunction_0" departPos="5.10" departSpeed="27.78" departDelay="0.92" arrival="106.00" arrivalLane="junctionEast_0" arrivalPos="492.80" arrivalSpeed="26.82" duration="50.00" routeLength="989.53" waitingTime="0.00" waitingCount="0" stopTime="0.00" timeLoss="13.12" rerouteNo="0" devices="tripinfo_southEast.1 ssm_southEast.1" vType="carCustom" speedFactor="0.96" vaporized=""/>
    <tripinfo id="westEastTop.7" depart="25.00" departLane="westJunction_1" departPos="5.10" departSpeed="6.48" departDelay="3.63" arrival="109.00" arrivalLane="junctionEast_1" arrivalPos="492.80" arrivalSpeed="27.76" duration="84.00" routeLength="994.90" waitingTime="0.00" waitingCount="0" stopTime="0.00" timeLoss="47.65" rerouteNo="0" devices="tripinfo_westEastTop.7 ssm_westEastTop.7" vType="carCustom" speedFactor="0.71" vaporized=""/>
    <tripinfo id="westEastBottom0.9" depart="75.00" departLane="westJunction_0" departPos="5.10" departSpeed="10.40" departDelay="0.07" arrival="113.00" arrivalLane="junctionEast_0" arrivalPos="492.80" arrivalSpeed="12.07" duration="38.00" routeLength="994.90" waitingTime="0.00" waitingCount="0" stopTime="0.00" timeLoss="19.74" rerouteNo="0" devices="tripinfo_westEastBottom0.9 ssm_westEastBottom0.9" vType="carCustom" speedFactor="0.86" vaporized="teleport"/>
    <tripinfo id="westEastTop.8" depart="28.00" departLane="westJunction_1" departPos="5.10" departSpeed="5.54" departDelay="6.27" arrival="114.00" arrivalLane="junctionEast_1" arrivalPos="492.80" arrivalSpeed="26.86" duration="86.00" routeLength="994.90" waitingTime="0.00" waitingCount="0" stopTime="0.00" timeLoss="49.61" rerouteNo="0" devices="tripinfo_westEastTop.8 ssm_westEastTop.8" vType="carCustom" speedFactor="0.96" vaporized=""/>
    <tripinfo id="westEastBottom0.5" depart="60.00" departLane="westJunction_0" departPos="5.10" departSpeed="14.87" departDelay="0.85" arrival="119.00" arrivalLane="junctionEast_1" arrivalPos="492.80" arrivalSpeed="27.66" duration="59.00" routeLength="994.90" waitingTime="0.00" waitingCount="0" stopTime="0.00" timeLoss="22.49" rerouteNo="0" devices="tripinfo_westEastBottom0.5 ssm_westEastBottom0.5" vType="carCustom" speedFactor="1.00" vaporized=""/>
    <tripinfo id="westEastBottom0.6" depart="62.00" departLane="westJunction_0" departPos="5.10" departSpeed="17.93" departDelay="2.08" arrival="121.00" arrivalLane="junctionEast_0" arrivalPos="492.80" arrivalSpeed="27.09" duration="59.00" routeLength="994.90" waitingTime="0.00" waitingCount="0" stopTime="0.00" timeLoss="23.17" rerouteNo="0" devices="tripinfo_westEastBottom0.6 ssm_westEastBottom0.6" vType="carCustom" speedFactor="1.08" vaporized=""/>
    <tripinfo id="westEastTop.9" depart="43.00" departLane="westJunction_1" departPos="5.10" departSpeed="9.01" departDelay="0.32" arrival="123.00" arrivalLane="junctionEast_1" arrivalPos="492.80" arrivalSpeed="26.64" duration="80.00" routeLength="994.90" waitingTime="0.00" waitingCount="0" stopTime="0.00" timeLoss="44.18" rerouteNo="0" devices="tripinfo_westEastTop.9 ssm_westEastTop.9" vType="carCustom" speedFactor="1.07" vaporized=""/>
    <tripinfo id="westEastTop.10" depart="51.00" departLane="westJunction_1" departPos="5.10" departSpeed="12.60" departDelay="0.31" arrival="128.00" arrivalLane="junctionEast_1" arrivalPos="492.80" arrivalSpeed="26.67" duration="77.00" routeLength="994.90" waitingTime="0.00" waitingCount="0" stopTime="0.00" timeLoss="40.84" rerouteNo="0" devices="tripinfo_westEastTop.10 ssm_westEastTop.10" vType="carCustom" speedFactor="1.04" vaporized=""/>
    <tripinfo id="westEastBottom0.7" depart="64.00" departLane="westJunction_0" departPos="5.10" departSpeed="12.85" departDelay="4.03" arrival="129.00" arrivalLane="junctionEast_0" arrivalPos="492.80" arrivalSpeed="26.99" duration="65.00" routeLength="994.90" waitingTime="0.00" waitingCount="0" stopTime="0.00" timeLoss="28.65" rerouteNo="0" devices="tripinfo_westEastBottom0.7 ssm_westEastBottom0.7" vType="carCustom" speedFactor="1.14" vaporized=""/>
    <tripinfo id="westEastTop.11" depart="53.00" departLane="westJunction_1" departPos="5.10" departSpeed="15.74" departDelay="1.15" arrival="133.00" arrivalLane="junctionEast_1" arrivalPos="492.80" arrivalSpeed="27.76" duration="80.00" routeLength="994.90" waitingTime="0.00" waitingCount="0" stopTime="0.00" timeLoss="43.43" rerouteNo="0" devices="tripinfo_westEastTop.11 ssm_westEastTop.11" vType="carCustom" speedFactor="1.12" vaporized=""/>
    <tripinfo id="westEastBottom0.8" depart="69.00" departLane="westJunction_0" departPos="5.10" departSpeed="9.22" departDelay="0.67" arrival="134.00" arrivalLane="junctionEast_0" arrivalPos="492.80" arrivalSpeed="27.26" duration="65.00" routeLength="994.90" waitingTime="0.00" waitingCount="0" stopTime="0.00" timeLoss="28.97" rerouteNo="0" devices="tripinfo_westEastBottom0.8 ssm_westEastBottom0.8" vType="carCustom" speedFactor="1.03" vaporized=""/>
    <tripinfo id="westEastTop.12" depart="55.00" departLane="westJunction_1" departPos="5.10" departSpeed="11.09" departDelay="2.30" arrival="138.00" arrivalLane="junctionEast_1" arrivalPos="492.80" arrivalSpeed="26.84" duration="83.00" routeLength="994.90" waitingTime="0.00" waitingCount="0" stopTime="0.00" timeLoss="46.32" rerouteNo="0" devices="tripinfo_westEastTop.12 ssm_westEastTop.12" vType="carCustom" speedFactor="1.10" vaporized=""/>
    <tripinfo id="southEast.2" depart="82.00" departLane="southJunction_0" departPos="5.10" departSpeed="27.78" departDelay="0.90" arrival="140.00" arrivalLane="junctionEast_0" arrivalPos="492.80" arrivalSpeed="27.61" duration="58.00" routeLength="989.53" waitingTime="4.00" waitingCount="1" stopTime="0.00" timeLoss="20.94" rerouteNo="0" devices="tripinfo_southEast.2 ssm_southEast.2" vType="carCustom" speedFactor="0.99" vaporized=""/>
    <tripinfo id="westEastTop.13" depart="57.00" departLane="westJunction_1" departPos="5.10" departSpeed="7.29" departDelay="2.61" arrival="142.00" arrivalLane="junctionEast_1" arrivalPos="492.80" arrivalSpeed="27.21" duration="85.00" routeLength="994.90" waitingTime="0.00" waitingCount="0" stopTime="0.00" timeLoss="48.99" rerouteNo="0" devices="tripinfo_westEastTop.13 ssm_westEastTop.13" vType="carCustom" speedFactor="0.93" vaporized=""/>
    <tripinfo id="westEastBottom0.10" depart="79.00" departLane="westJunction_0" departPos="5.10" departSpeed="11.79" departDelay="0.29" arrival="145.00" arrivalLane="junctionEast_0" arrivalPos="492.80" arrivalSpeed="27.35" duration="66.00" routeLength="994.90" waitingTime="0.00" waitingCount="0" stopTime="0.00" timeLoss="29.93" rerouteNo="0" devices="tripinfo_westEastBottom0.10 ssm_westEastBottom0.10" vType="carCustom" speedFactor="1.07" vaporized=""/>
    <tripinfo id="westEastTop.14" depart="64.00" departLane="westJunction_1" departPos="5.10" departSpeed="8.34" departDelay="0.42" arrival="147.00" arrivalLane="junctionEast_1" arrivalPos="492.80" arrivalSpeed="27.00" duration="83.00" routeLength="994.90" waitingTime="0.00" waitingCount="0" stopTime="0.00" timeLoss="46.55" rerouteNo="0" devices="tripinfo_westEastTop.14 ssm_westEastTop.14" vType="carCustom" speedFactor="1.05" vaporized=""/>
    <tripinfo id="southNorth.1" depart="86.00" departLane="southJunction_1" departPos="5.10" departSpeed="27.78" departDelay="0.85" arrival="150.00" arrivalLane="junctionNorth_0" arrivalPos="492.80" arrivalSpeed="26.87" duration="64.00" routeLength="995.01" waitingTime="15.00" waitingCount="1" stopTime="0.00" timeLoss="27.46" rerouteNo="0" devices="tripinfo_southNorth.1 ssm_southNorth.1" vType="carCustom" speedFactor="0.97" vaporized=""/>
    <tripinfo id="westEastTop.15" depart="66.00" departLane="westJunction_1" departPos="5.10" departSpeed="9.40" departDelay="0.09" arrival="152.00" arrivalLane="junctionEast_1" arrivalPos="492.80" arrivalSpeed="26.49" duration="86.00" routeLength="994.90" waitingTime="0.00" waitingCount="0" stopTime="0.00" timeLoss="49.32" rerouteNo="0" devices="tripinfo_westEastTop.15 ssm_westEastTop.15" vType="carCustom" speedFactor="0.91" vaporized=""/>
    <tripinfo id="southEast.3" depart="86.00" departLane="southJunction_0" departPos="5.10" departSpeed="27.27" departDelay="0.87" arrival="152.00" arrivalLane="junctionEast_0" arrivalPos="492.80" arrivalSpeed="26.60" duration="66.00" routeLength="989.53" waitingTime="3.00" waitingCount="1" stopTime="0.00" timeLoss="29.24" rerouteNo="0" devices="tripinfo_southEast.3 ssm_southEast.3" vType="carCustom" speedFactor="0.99" vaporized=""/>
    <tripinfo id="westEastTop.16" depart="69.00" departLane="westJunction_1" departPos="5.10" departSpeed="6.03" departDelay="2.63" arrival="156.00" arrivalLane="junctionEast_1" arrivalPos="492.80" arrivalSpeed="27.13" duration="87.00" routeLength="994.90" waitingTime="0.00" waitingCount="0" stopTime="0.00" timeLoss="51.13" rerouteNo="0" devices="tripinfo_westEastTop.16 ssm_westEastTop.16" vType="carCustom" speedFactor="0.97" vaporized=""/>
    <tripinfo id="southEast.4" depart="90.00" departLane="southJunction_0" departPos="5.10" departSpeed="21.17" departDelay="0.73" arrival="157.00" arrivalLane="junctionEast_0" arrivalPos="492.80" arrivalSpeed="27.47" duration="67.00" routeLength="989.53" waitingTime="0.00" waitingCount="0" stopTime="0.00" timeLoss="29.53" rerouteNo="0" devices="tripinfo_southEast.4 ssm_southEast.4" vType="carCustom" speedFactor="0.94" vaporized=""/>
    <tripinfo id="southNorth.2" depart="92.00" departLane="southJunction_1" departPos="5.10" departSpeed="26.49" departDelay="0.22" arrival="159.00" arrivalLane="junctionNorth_0" arrivalPos="492.80" arrivalSpeed="26.70" duration="67.00" routeLength="995.01" waitingTime="7.00" waitingCount="2" stopTime="0.00" timeLoss="31.07" rerouteNo="0" devices="tripinfo_southNorth.2 ssm_southNorth.2" vType="carCustom" speedFactor="0.99" vaporized=""/>
    <tripinfo id="westEastTop.17" depart="72.00" departLane="westJunction_1" departPos="5.10" departSpeed="6.63" departDelay="1.81" arrival="161.00" arrivalLane="junctionEast_1" arrivalPos="492.80" arrivalSpeed="26.91" duration="89.00" routeLength="994.90" waitingTime="1.00" waitingCount="1" stopTime="0.00" timeLoss="53.18" rerouteNo="0" devices="tripinfo_westEastTop.17 ssm_westEastTop.17" vType="carCustom" speedFactor="1.00" vaporized=""/>
    <tripinfo id="southEast.5" depart="102.00" departLane="southJunction_0" departPos="5.10" departSpeed="19.12" departDelay="0.50" arrival="162.00" arrivalLane="junctionEast_0" arrivalPos="492.80" arrivalSpeed="26.89" duration="60.00" routeLength="989.53" waitingTime="0.00" waitingCount="0" stopTime="0.00" timeLoss="22.71" rerouteNo="0" devices="tripinfo_southEast.5 ssm_southEast.5" vType="carCustom" speedFactor="1.06" vaporized=""/>
    <tripinfo id="westEastTop.18" depart="85.00" departLane="westJunction_1" departPos="5.10" departSpeed="7.52" departDelay="0.92" arrival="167.00" arrivalLane="junctionEast_1" arrivalPos="492.80" arrivalSpeed="26.70" duration="82.00" routeLength="994.90" waitingTime="4.00" waitingCount="1" stopTime="0.00" timeLoss="46.15" rerouteNo="0" devices="tripinfo_westEastTop.18 ssm_westEastTop.18" vType="carCustom" speedFactor="1.07" vaporized=""/>
    <tripinfo id="southEast.6" depart="109.00" departLane="southJunction_0" departPos="5.10" departSpeed="22.08" departDelay="0.73" arrival="168.00" arrivalLane="junctionEast_0" arrivalPos="492.80" arrivalSpeed="26.77" duration="59.00" routeLength="989.53" waitingTime="0.00" waitingCount="0" stopTime="0.00" timeLoss="20.95" rerouteNo="0" devices="tripinfo_southEast.6 ssm_southEast.6" vType="carCustom" speedFactor="0.93" vaporized=""/>
    <tripinfo id="southNorth.3" depart="105.00" departLane="southJunction_1" departPos="5.10" departSpeed="21.08" departDelay="0.28" arrival="170.00" arrivalLane="junctionNorth_0" arrivalPos="492.80" arrivalSpeed="26.80" duration="65.00" routeLength="995.01" waitingTime="5.00" waitingCount="1" stopTime="0.00" timeLoss="29.15" rerouteNo="0" devices="tripinfo_southNorth.3 ssm_southNorth.3" vType="carCustom" speedFactor="1.01" vaporized=""/>
    <tripinfo id="southEast.7" depart="119.00" departLane="southJunction_0" departPos="5.10" departSpeed="20.15" departDelay="0.75" arrival="174.00" arrivalLane="junctionEast_0" arrivalPos="492.80" arrivalSpeed="27.72" duration="55.00" routeLength="989.53" waitingTime="0.00" waitingCount="0" stopTime="0.00" timeLoss="17.95" rerouteNo="0" devices="tripinfo_southEast.7 ssm_southEast.7" vType="carCustom" speedFactor="0.95" vaporized=""/>
    <tripinfo id="westEastTop.19" depart="87.00" departLane="westJunction_1" departPos="5.10" departSpeed="11.28" departDelay="0.48" arrival="175.00" arrivalLane="junctionEast_1" arrivalPos="492.80" arrivalSpeed="27.31" duration="88.00" routeLength="994.90" waitingTime="5.00" waitingCount="1" stopTime="0.00" timeLoss="51.42" rerouteNo="0" devices="tripinfo_westEastTop.19 ssm_westEastTop.19" vType="carCustom" speedFactor="1.05" vaporized=""/>
    <tripinfo id="southEast.9" depart="132.00" departLane="southJunction_0" departPos="5.10" departSpeed="24.47" departDelay="1.89" arrival="176.00" arrivalLane="junctionEast_0" arrivalPos="492.80" arrivalSpeed="5.45" duration="44.00" routeLength="989.53" waitingTime="8.00" waitingCount="1" stopTime="0.00" timeLoss="25.16" rerouteNo="0" devices="tripinfo_southEast.9 ssm_southEast.9" vType="carCustom" speedFactor="0.93" vaporized="teleport"/>
    <tripinfo id="southNorth.4" depart="109.00" departLane="southJunction_1" departPos="5.10" departSpeed="27.09" departDelay="0.76" arrival="179.00" arrivalLane="junctionNorth_0" arrivalPos="492.80" arrivalSpeed="27.77" duration="70.00" routeLength="995.01" waitingTime="7.00" waitingCount="2" stopTime="0.00" timeLoss="33.77" rerouteNo="0" devices="tripinfo_southNorth.4 ssm_southNorth.4" vType="carCustom" speedFactor="1.09" vaporized=""/>
    <tripinfo id="westEastBottom0.11" depart="119.00" departLane="westJunction_0" departPos="5.10" departSpeed="27.78" departDelay="0.22" arrival="180.00" arrivalLane="junctionEast_0" arrivalPos="492.80" arrivalSpeed="27.66" duration="61.00" routeLength="994.90" waitingTime="1.00" waitingCount="1" stopTime="0.00" timeLoss="24.20" rerouteNo="0" devices="tripinfo_westEastBottom0.11 ssm_westEastBottom0.11" vType="carCustom" speedFactor="1.04" vaporized=""/>
    <tripinfo id="westEastBottom0.14" depart="148.00" departLane="westJunction_0" departPos="5.10" departSpeed="13.98" departDelay="0.80" arrival="183.00" arrivalLane="junctionEast_0" arrivalPos="492.80" arrivalSpeed="8.52" duration="35.00" routeLength="994.90" waitingTime="0.00" waitingCount="0" stopTime="0.00" timeLoss="16.85" rerouteNo="0" devices="tripinfo_westEastBottom0.14 ssm_westEastBottom0.14" vType="carCustom" speedFactor="1.10" vaporized="teleport"/>
    <tripinfo id="southNorth.5" depart="123.00" departLane="southJunction_1" departPos="5.10" departSpeed="17.12" departDelay="0.59" arrival="185.00" arrivalLane="junctionNorth_0" arrivalPos="492.80" arrivalSpeed="27.39" duration="62.00" routeLength="995.01" waitingTime="0.00" waitingCount="0" stopTime="0.00" timeLoss="25.79" rerouteNo="0" devices="tripinfo_southNorth.5 ssm_southNorth.5" vType="carCustom" speedFactor="0.93" vaporized=""/>
    <tripinfo id="southEast.8" depart="130.00" departLane="southJunction_0" departPos="5.10" departSpeed="20.48" departDelay="0.65" arrival="185.00" arrivalLane="junctionEast_0" arrivalPos="492.80" arrivalSpeed="26.81" duration="55.00" routeLength="989.53" waitingTime="0.00" waitingCount="0" stopTime="0.00" timeLoss="17.63" rerouteNo="0" devices="tripinfo_southEast.8 ssm_southEast.8" vType="carCustom" speedFactor="0.99" vaporized=""/>
    <tripinfo id="westEastTop.20" depart="89.00" departLane="westJunction_1" departPos="5.10" departSpeed="7.35" departDelay="1.36" arrival="189.00" arrivalLane="junctionEast_1" arrivalPos="492.80" arrivalSpeed="27.19" duration="100.00" routeLength="994.90" waitingTime="11.00" waitingCount="2" stopTime="0.00" timeLoss="63.66" rerouteNo="0" devices="tripinfo_westEastTop.20 ssm_westEastTop.20" vType="carCustom" speedFactor="0.97" vaporized=""/>
    <tripinfo id="southNorth.6" depart="130.00" departLane="southJunction_1" departPos="5.10" departSpeed="24.23" departDelay="0.53" arrival="191.00" arrivalLane="junctionNorth_0" arrivalPos="492.80" arrivalSpeed="27.64" duration="61.00" routeLength="995.01" waitingTime="0.00" waitingCount="0" stopTime="0.00" timeLoss="24.42" rerouteNo="0" devices="tripinfo_southNorth.6 ssm_southNorth.6" vType="carCustom" speedFactor="1.08" vaporized=""/>
    <tripinfo id="westEastBottom0.12" depart="140.00" departLane="westJunction_0" departPos="5.10" departSpeed="16.57" departDelay="0.62" arrival="192.00" arrivalLane="junctionEast_0" arrivalPos="492.80" arrivalSpeed="26.97" duration="52.00" routeLength="994.90" waitingTime="0.00" waitingCount="0" stopTime="0.00" timeLoss="15.40" rerouteNo="0" devices="tripinfo_westEastBottom0.12 ssm_westEastBottom0.12" vType="carCustom" speedFactor="1.05" vaporized=""/>
    <tripinfo id="westEastTop.21" depart="92.00" departLane="westJunction_1" departPos="5.10" departSpeed="6.37" departDelay="3.09" arrival="195.00" arrivalLane="junctionEast_1" arrivalPos="492.80" arrivalSpeed="26.77" duration="103.00" routeLength="994.90" waitingTime="6.00" waitingCount="1" stopTime="0.00" timeLoss="66.74" rerouteNo="0" devices="tripinfo_westEastTop.21 ssm_westEastTop.21" vType="carCustom" speedFactor="1.13" vaporized=""/>
    <tripinfo id="westEastBottom0.13" depart="143.00" departLane="westJunction_0" departPos="5.10" departSpeed="15.49" departDelay="0.10" arrival="198.00" arrivalLane="junctionEast_0" arrivalPos="492.80" arrivalSpeed="27.67" duration="55.00" routeLength="994.90" waitingTime="0.00" waitingCount="0" stopTime="0.00" timeLoss="18.91" rerouteNo="0" devices="tripinfo_westEastBottom0.13 ssm_westEastBottom0.13" vType="carCustom" speedFactor="1.05" vaporized=""/>
    <tripinfo id="westEastTop.22" depart="95.00" departLane="westJunction_1" departPos="5.10" departSpeed="5.16" departDelay="4.83" arrival="201.00" arrivalLane="junctionEast_1" arrivalPos="492.80" arrivalSpeed="27.59" duration="106.00" routeLength="994.90" waitingTime="4.00" waitingCount="1" stopTime="0.00" timeLoss="69.39" rerouteNo="0" devices="tripinfo_westEastTop.22 ssm_westEastTop.22" vType="carCustom" speedFactor="1.04" vaporized=""/>
    <tripinfo id="westEastTop.23" depart="98.00" departLane="westJunction_1" departPos="5.10" departSpeed="4.83" departDelay="5.37" arrival="206.00" arrivalLane="junctionEast_1" arrivalPos="492.80" arrivalSpeed="27.36" duration="108.00" routeLength="994.90" waitingTime="3.00" waitingCount="1" stopTime="0.00" timeLoss="71.82" rerouteNo="0" devices="tripinfo_westEastTop.23 ssm_westEastTop.23" vType="carCustom" speedFactor="0.82" vaporized=""/>
    <tripinfo id="southEast.10" depart="134.00" departLane="southJunction_0" departPos="5.10" departSpeed="19.25" departDelay="3.12" arrival="207.00" arrivalLane="junctionEast_0" arrivalPos="492.80" arrivalSpeed="27.35" duration="73.00" routeLength="989.53" waitingTime="1.00" waitingCount="1" stopTime="0.00" timeLoss="35.77" rerouteNo="0" devices="tripinfo_southEast.10 ssm_southEast.10" vType="carCustom" speedFactor="0.99" vaporized=""/>
    <tripinfo id="westEastTop.24" depart="102.00" departLane="westJunction_1" departPos="5.10" departSpeed="3.78" departDelay="4.71" arrival="211.00" arrivalLane="junctionEast_1" arrivalPos="492.80" arrivalSpeed="27.35" duration="109.00" routeLength="994.90" waitingTime="2.00" waitingCount="1" stopTime="0.00" timeLoss="73.04" rerouteNo="0" devices="tripinfo_westEastTop.24 ssm_westEastTop.24" vType="carCustom" speedFactor="1.15" vaporized=""/>
    <tripinfo id="southEast.11" depart="138.00" departLane="southJunction_0" departPos="5.10" departSpeed="12.33" departDelay="0.84" arrival="212.00" arrivalLane="junctionEast_0" arrivalPos="492.80" arrivalSpeed="27.60" duration="74.00" routeLength="989.53" waitingTime="0.00" waitingCount="0" stopTime="0.00" timeLoss="36.36" rerouteNo="0" devices="tripinfo_southEast.11 ssm_southEast.11" vType="carCustom" speedFactor="0.94" vaporized=""/>
    <tripinfo id="westEastTop.25" depart="106.00" departLane="westJunction_1" departPos="5.10" departSpeed="4.24" departDelay="8.47" arrival="216.00" arrivalLane="junctionEast_1" arrivalPos="492.80" arrivalSpeed="26.95" duration="110.00" routeLength="994.90" waitingTime="0.00" waitingCount="0" stopTime="0.00" timeLoss="74.00" rerouteNo="0" devices="tripinfo_westEastTop.25 ssm_westEastTop.25" vType="carCustom" speedFactor="1.10" vaporized=""/>
    <tripinfo id="southEast.12" depart="146.00" departLane="southJunction_0" departPos="5.10" departSpeed="13.90" departDelay="0.10" arrival="217.00" arrivalLane="junctionEast_0" arrivalPos="492.80" arrivalSpeed="26.95" duration="71.00" routeLength="989.53" waitingTime="0.00" waitingCount="0" stopTime="0.00" timeLoss="34.27" rerouteNo="0" devices="tripinfo_southEast.12 ssm_southEast.12" vType="carCustom" speedFactor="0.98" vaporized=""/>
    <tripinfo id="westEastTop.26" depart="110.00" departLane="westJunction_1" departPos="5.10" departSpeed="5.47" departDelay="7.20" arrival="221.00" arrivalLane="junctionEast_1" arrivalPos="492.80" arrivalSpeed="27.19" duration="111.00" routeLength="994.90" waitingTime="0.00" waitingCount="0" stopTime="0.00" timeLoss="74.94" rerouteNo="0" devices="tripinfo_westEastTop.26 ssm_westEastTop.26" vType="carCustom" speedFactor="1.11" vaporized=""/>
    <tripinfo id="southNorth.7" depart="163.00" departLane="southJunction_1" departPos="5.10" departSpeed="27.78" departDelay="0.53" arrival="221.00" arrivalLane="junctionNorth_0" arrivalPos="492.80" arrivalSpeed="27.52" duration="58.00" routeLength="995.01" waitingTime="9.00" waitingCount="1" stopTime="0.00" timeLoss="21.25" rerouteNo="0" devices="tripinfo_southNorth.7 ssm_southNorth.7" vType="carCustom" speedFactor="0.89" vaporized=""/>