<?xml version="1.0" encoding="UTF-8"?>

<!-- generated on 2025-04-29 08:46:01 by Eclipse SUMO sumo Version 1.20.0
<configuration xmlns:xsi="http://www.w3.org/2001/XMLSchema-instance" xsi:noNamespaceSchemaLocation="http://sumo.dlr.de/xsd/sumoConfiguration.xsd">

    <input>
        <net-file value="nets/2lane_unprotected_right/2lane_unprotected_right.net.xml"/>
        <route-files value="nets/2lane_unprotected_right/2lane_unprotected_right.rou.xml"/>
    </input>

    <output>
        <tripinfo-output value="traces/transs50f0.5_s50_f1_random/0176_tripinfo.xml"/>
        <collision-output value="traces/transs50f0.5_s50_f1_random/0176_collisions.xml"/>
        <statistic-output value="traces/transs50f0.5_s50_f1_random/0176_statistics.xml"/>
    </output>

    <processing>
        <collision.action value="teleport"/>
        <collision.check-junctions value="true"/>
        <time-to-teleport value="-1"/>
        <waiting-time-memory value="1000"/>
        <max-depart-delay value="-1"/>
        <default.speeddev value="0.1"/>
    </processing>

    <report>
        <no-warnings value="true"/>
    </report>

    <ssm_device>
        <device.ssm.probability value="1.0"/>
        <device.ssm.measures value="BR"/>
        <device.ssm.file value="/Users/finn/Code/CausalKnowledgeTransfer-4-SafeRL/traces/transs50f0.5_s50_f1_random/0176_ssm.xml"/>
    </ssm_device>

    <traci_server>
        <remote-port value="64578"/>
    </traci_server>

    <random_number>
        <random value="true"/>
    </random_number>

</configuration>
-->

<tripinfos xmlns:xsi="http://www.w3.org/2001/XMLSchema-instance" xsi:noNamespaceSchemaLocation="http://sumo.dlr.de/xsd/tripinfo_file.xsd">
    <tripinfo id="westEastTop.0" depart="3.00" departLane="westJunction_1" departPos="5.10" departSpeed="8.33" departDelay="0.79" arrival="133.00" arrivalLane="junctionEast_0" arrivalPos="492.80" arrivalSpeed="7.40" duration="130.00" routeLength="994.90" waitingTime="0.00" waitingCount="0" stopTime="0.00" timeLoss="10.14" rerouteNo="0" devices="tripinfo_westEastTop.0 ssm_westEastTop.0" vType="carCustom" speedFactor="1.00" vaporized=""/>
    <tripinfo id="southEast.0" depart="9.00" departLane="southJunction_0" departPos="5.10" departSpeed="8.33" departDelay="0.38" arrival="140.00" arrivalLane="junctionEast_0" arrivalPos="492.80" arrivalSpeed="7.92" duration="131.00" routeLength="989.53" waitingTime="0.00" waitingCount="0" stopTime="0.00" timeLoss="11.16" rerouteNo="0" devices="tripinfo_southEast.0 ssm_southEast.0" vType="carCustom" speedFactor="0.92" vaporized=""/>
    <tripinfo id="westEastTop.1" depart="5.00" departLane="westJunction_1" departPos="5.10" departSpeed="8.31" departDelay="0.15" arrival="146.00" arrivalLane="junctionEast_0" arrivalPos="492.80" arrivalSpeed="8.13" duration="141.00" routeLength="994.90" waitingTime="0.00" waitingCount="0" stopTime="0.00" timeLoss="21.23" rerouteNo="0" devices="tripinfo_westEastTop.1 ssm_westEastTop.1" vType="carCustom" speedFactor="1.22" vaporized=""/>
    <tripinfo id="westEastTop.2" depart="16.00" departLane="westJunction_1" departPos="5.10" departSpeed="6.45" departDelay="0.14" arrival="152.00" arrivalLane="junctionEast_0" arrivalPos="492.80" arrivalSpeed="7.93" duration="136.00" routeLength="994.90" waitingTime="0.00" waitingCount="0" stopTime="0.00" timeLoss="16.00" rerouteNo="0" devices="tripinfo_westEastTop.2 ssm_westEastTop.2" vType="carCustom" speedFactor="0.99" vaporized=""/>
    <tripinfo id="westEastBottom0.1" depart="18.00" departLane="westJunction_0" departPos="5.10" departSpeed="7.06" departDelay="0.48" arrival="157.00" arrivalLane="junctionEast_0" arrivalPos="492.80" arrivalSpeed="7.98" duration="139.00" routeLength="994.90" waitingTime="0.00" waitingCount="0" stopTime="0.00" timeLoss="19.04" rerouteNo="0" devices="tripinfo_westEastBottom0.1 ssm_westEastBottom0.1" vType="carCustom" speedFactor="0.95" vaporized=""/>
    <tripinfo id="westEastBottom0.0" depart="8.00" departLane="westJunction_0" departPos="5.10" departSpeed="8.33" departDelay="0.47" arrival="158.00" arrivalLane="junctionEast_1" arrivalPos="492.80" arrivalSpeed="7.58" duration="150.00" routeLength="994.90" waitingTime="1.00" waitingCount="1" stopTime="0.00" timeLoss="30.13" rerouteNo="0" devices="tripinfo_westEastBottom0.0 ssm_westEastBottom0.0" vType="carCustom" speedFactor="1.06" vaporized=""/>
    <tripinfo id="southEast.2" depart="14.00" departLane="southJunction_0" departPos="5.10" departSpeed="4.32" departDelay="4.77" arrival="163.00" arrivalLane="junctionEast_0" arrivalPos="492.80" arrivalSpeed="7.71" duration="149.00" routeLength="989.53" waitingTime="0.00" waitingCount="0" stopTime="0.00" timeLoss="29.29" rerouteNo="0" devices="tripinfo_southEast.2 ssm_southEast.2" vType="carCustom" speedFactor="1.07" vaporized=""/>
    <tripinfo id="westEastTop.3" depart="18.00" departLane="westJunction_1" departPos="5.10" departSpeed="7.62" departDelay="1.72" arrival="164.00" arrivalLane="junctionEast_1" arrivalPos="492.80" arrivalSpeed="7.99" duration="146.00" routeLength="994.90" waitingTime="0.00" waitingCount="0" stopTime="0.00" timeLoss="25.84" rerouteNo="0" devices="tripinfo_westEastTop.3 ssm_westEastTop.3" vType="carCustom" speedFactor="1.05" vaporized=""/>
    <tripinfo id="southEast.1" depart="11.00" departLane="southJunction_0" departPos="5.10" departSpeed="8.31" departDelay="1.99" arrival="169.00" arrivalLane="junctionEast_0" arrivalPos="492.80" arrivalSpeed="7.76" duration="158.00" routeLength="989.53" waitingTime="0.00" waitingCount="0" stopTime="0.00" timeLoss="38.25" rerouteNo="0" devices="tripinfo_southEast.1 ssm_southEast.1" vType="carCustom" speedFactor="0.98" vaporized=""/>
    <tripinfo id="westEastBottom0.10" depart="85.00" departLane="westJunction_0" departPos="5.10" departSpeed="6.92" departDelay="0.23" arrival="169.00" arrivalLane="junctionEast_0" arrivalPos="492.80" arrivalSpeed="6.48" duration="84.00" routeLength="994.90" waitingTime="4.00" waitingCount="1" stopTime="0.00" timeLoss="23.59" rerouteNo="0" devices="tripinfo_westEastBottom0.10 ssm_westEastBottom0.10" vType="carCustom" speedFactor="1.10" vaporized="teleport"/>
    <tripinfo id="westEastTop.4" depart="21.00" departLane="westJunction_1" departPos="5.10" departSpeed="3.99" departDelay="2.86" arrival="170.00" arrivalLane="junctionEast_1" arrivalPos="492.80" arrivalSpeed="8.15" duration="149.00" routeLength="994.90" waitingTime="2.00" waitingCount="1" stopTime="0.00" timeLoss="29.28" rerouteNo="0" devices="tripinfo_westEastTop.4 ssm_westEastTop.4" vType="carCustom" speedFactor="1.14" vaporized=""/>
    <tripinfo id="westEastBottom0.2" depart="21.00" departLane="westJunction_0" departPos="5.10" departSpeed="8.27" departDelay="0.88" arrival="175.00" arrivalLane="junctionEast_0" arrivalPos="492.80" arrivalSpeed="7.51" duration="154.00" routeLength="994.90" waitingTime="0.00" waitingCount="0" stopTime="0.00" timeLoss="34.34" rerouteNo="0" devices="tripinfo_westEastBottom0.2 ssm_westEastBottom0.2" vType="carCustom" speedFactor="1.01" vaporized=""/>
    <tripinfo id="westEastTop.5" depart="25.00" departLane="westJunction_1" departPos="5.10" departSpeed="3.41" departDelay="5.31" arrival="177.00" arrivalLane="junctionEast_1" arrivalPos="492.80" arrivalSpeed="7.19" duration="152.00" routeLength="994.90" waitingTime="0.00" waitingCount="0" stopTime="0.00" timeLoss="31.84" rerouteNo="0" devices="tripinfo_westEastTop.5 ssm_westEastTop.5" vType="carCustom" speedFactor="0.94" vaporized=""/>
    <tripinfo id="southNorth.0" depart="45.00" departLane="southJunction_1" departPos="5.10" departSpeed="7.62" departDelay="0.97" arrival="178.00" arrivalLane="junctionNorth_0" arrivalPos="492.80" arrivalSpeed="8.29" duration="133.00" routeLength="995.01" waitingTime="0.00" waitingCount="0" stopTime="0.00" timeLoss="12.82" rerouteNo="0" devices="tripinfo_southNorth.0 ssm_southNorth.0" vType="carCustom" speedFactor="1.16" vaporized=""/>
    <tripinfo id="southEast.3" depart="20.00" departLane="southJunction_0" departPos="5.10" departSpeed="6.36" departDelay="0.49" arrival="181.00" arrivalLane="junctionEast_0" arrivalPos="492.80" arrivalSpeed="7.85" duration="161.00" routeLength="989.53" waitingTime="0.00" waitingCount="0" stopTime="0.00" timeLoss="41.65" rerouteNo="0" devices="tripinfo_southEast.3 ssm_southEast.3" vType="carCustom" speedFactor="0.85" vaporized=""/>
    <tripinfo id="westEastBottom0.4" depart="28.00" departLane="westJunction_0" departPos="5.10" departSpeed="3.97" departDelay="4.34" arrival="183.00" arrivalLane="junctionEast_1" arrivalPos="492.80" arrivalSpeed="8.09" duration="155.00" routeLength="994.90" waitingTime="0.00" waitingCount="0" stopTime="0.00" timeLoss="35.04" rerouteNo="0" devices="tripinfo_westEastBottom0.4 ssm_westEastBottom0.4" vType="carCustom" speedFactor="1.02" vaporized=""/>
    <tripinfo id="westEastBottom0.3" depart="24.00" departLane="westJunction_0" departPos="5.10" departSpeed="4.67" departDelay="3.45" arrival="188.00" arrivalLane="junctionEast_0" arrivalPos="492.80" arrivalSpeed="8.23" duration="164.00" routeLength="994.90" waitingTime="1.00" waitingCount="1" stopTime="0.00" timeLoss="43.97" rerouteNo="0" devices="tripinfo_westEastBottom0.3 ssm_westEastBottom0.3" vType="carCustom" speedFactor="0.99" vaporized=""/>
    <tripinfo id="westEastTop.6" depart="30.00" departLane="westJunction_1" departPos="5.10" departSpeed="3.18" departDelay="4.42" arrival="190.00" arrivalLane="junctionEast_1" arrivalPos="492.80" arrivalSpeed="7.43" duration="160.00" routeLength="994.90" waitingTime="3.00" waitingCount="1" stopTime="0.00" timeLoss="39.91" rerouteNo="0" devices="tripinfo_westEastTop.6 ssm_westEastTop.6" vType="carCustom" speedFactor="1.06" vaporized=""/>
    <tripinfo id="southEast.4" depart="50.00" departLane="southJunction_0" departPos="5.10" departSpeed="7.86" departDelay="0.43" arrival="194.00" arrivalLane="junctionEast_0" arrivalPos="492.80" arrivalSpeed="7.55" duration="144.00" routeLength="989.53" waitingTime="0.00" waitingCount="0" stopTime="0.00" timeLoss="24.54" rerouteNo="0" devices="tripinfo_southEast.4 ssm_southEast.4" vType="carCustom" speedFactor="0.99" vaporized=""/>
    <tripinfo id="westEastTop.7" depart="35.00" departLane="westJunction_1" departPos="5.10" departSpeed="3.09" departDelay="2.00" arrival="196.00" arrivalLane="junctionEast_0" arrivalPos="492.80" arrivalSpeed="7.50" duration="161.00" routeLength="994.90" waitingTime="3.00" waitingCount="1" stopTime="0.00" timeLoss="41.09" rerouteNo="0" devices="tripinfo_westEastTop.7 ssm_westEastTop.7" vType="carCustom" speedFactor="1.07" vaporized=""/>
    <tripinfo id="southNorth.1" depart="69.00" departLane="southJunction_1" departPos="5.10" departSpeed="7.33" departDelay="0.72" arrival="200.00" arrivalLane="junctionNorth_0" arrivalPos="492.80" arrivalSpeed="7.39" duration="131.00" routeLength="995.01" waitingTime="0.00" waitingCount="0" stopTime="0.00" timeLoss="10.72" rerouteNo="0" devices="tripinfo_southNorth.1 ssm_southNorth.1" vType="carCustom" speedFactor="1.08" vaporized=""/>
    <tripinfo id="westEastBottom0.5" depart="32.00" departLane="westJunction_0" departPos="5.10" departSpeed="3.13" departDelay="6.73" arrival="201.00" arrivalLane="junctionEast_0" arrivalPos="492.80" arrivalSpeed="7.93" duration="169.00" routeLength="994.90" waitingTime="1.00" waitingCount="1" stopTime="0.00" timeLoss="48.67" rerouteNo="0" devices="tripinfo_westEastBottom0.5 ssm_westEastBottom0.5" vType="carCustom" speedFactor="1.09" vaporized=""/>
    <tripinfo id="westEastTop.8" depart="39.00" departLane="westJunction_1" departPos="5.10" departSpeed="2.65" departDelay="2.52" arrival="204.00" arrivalLane="junctionEast_0" arrivalPos="492.80" arrivalSpeed="7.54" duration="165.00" routeLength="994.90" waitingTime="4.00" waitingCount="1" stopTime="0.00" timeLoss="45.10" rerouteNo="0" devices="tripinfo_westEastTop.8 ssm_westEastTop.8" vType="carCustom" speedFactor="1.04" vaporized=""/>
    <tripinfo id="westEastBottom0.6" depart="63.00" departLane="westJunction_0" departPos="5.10" departSpeed="6.51" departDelay="0.88" arrival="207.00" arrivalLane="junctionEast_1" arrivalPos="492.80" arrivalSpeed="7.48" duration="144.00" routeLength="994.90" waitingTime="0.00" waitingCount="0" stopTime="0.00" timeLoss="24.27" rerouteNo="0" devices="tripinfo_westEastBottom0.6 ssm_westEastBottom0.6" vType="carCustom" speedFactor="1.10" vaporized=""/>
    <tripinfo id="westEastBottom0.7" depart="66.00" departLane="westJunction_0" departPos="5.10" departSpeed="7.76" departDelay="3.61" arrival="212.00" arrivalLane="junctionEast_0" arrivalPos="492.80" arrivalSpeed="7.19" duration="146.00" routeLength="994.90" waitingTime="0.00" waitingCount="0" stopTime="0.00" timeLoss="26.20" rerouteNo="0" devices="tripinfo_westEastBottom0.7 ssm_westEastBottom0.7" vType="carCustom" speedFactor="0.90" vaporized=""/>
    <tripinfo id="westEastTop.9" depart="45.00" departLane="westJunction_1" departPos="5.10" departSpeed="3.65" departDelay="4.88" arrival="214.00" arrivalLane="junctionEast_1" arrivalPos="492.80" arrivalSpeed="7.36" duration="169.00" routeLength="994.90" waitingTime="5.00" waitingCount="2" stopTime="0.00" timeLoss="49.10" rerouteNo="0" devices="tripinfo_westEastTop.9 ssm_westEastTop.9" vType="carCustom" speedFactor="1.26" vaporized=""/>
    <tripinfo id="southEast.5" depart="74.00" departLane="southJunction_0" departPos="5.10" departSpeed="7.90" departDelay="0.39" arrival="218.00" arrivalLane="junctionEast_0" arrivalPos="492.80" arrivalSpeed="7.81" duration="144.00" routeLength="989.53" waitingTime="0.00" waitingCount="0" stopTime="0.00" timeLoss="24.23" rerouteNo="0" devices="tripinfo_southEast.5 ssm_southEast.5" vType="carCustom" speedFactor="0.76" vaporized=""/>
    <tripinfo id="westEastBottom0.8" depart="69.00" departLane="westJunction_0" departPos="5.10" departSpeed="4.53" departDelay="4.68" arrival="220.00" arrivalLane="junctionEast_1" arrivalPos="492.80" arrivalSpeed="8.31" duration="151.00" routeLength="994.90" waitingTime="1.00" waitingCount="1" stopTime="0.00" timeLoss="31.29" rerouteNo="0" devices="tripinfo_westEastBottom0.8 ssm_westEastBottom0.8" vType="carCustom" speedFactor="0.91" vaporized=""/>
    <tripinfo id="southEast.6" depart="76.00" departLane="southJunction_0" departPos="5.10" departSpeed="8.31" departDelay="1.73" arrival="225.00" arrivalLane="junctionEast_0" arrivalPos="492.80" arrivalSpeed="8.17" duration="149.00" routeLength="989.53" waitingTime="0.00" waitingCount="0" stopTime="0.00" timeLoss="29.14" rerouteNo="0" devices="tripinfo_southEast.6 ssm_southEast.6" vType="carCustom" speedFactor="0.95" vaporized=""/>
    <tripinfo id="westEastTop.10" depart="50.00" departLane="westJunction_1" departPos="5.10" departSpeed="3.18" departDelay="9.45" arrival="227.00" arrivalLane="junctionEast_1" arrivalPos="492.80" arrivalSpeed="7.98" duration="177.00" routeLength="994.90" waitingTime="4.00" waitingCount="1" stopTime="0.00" timeLoss="56.96" rerouteNo="0" devices="tripinfo_westEastTop.10 ssm_westEastTop.10" vType="carCustom" speedFactor="0.99" vaporized=""/>
    <tripinfo id="southNorth.2" depart="100.00" departLane="southJunction_1" departPos="5.10" departSpeed="7.09" departDelay="0.23" arrival="229.00" arrivalLane="junctionNorth_0" arrivalPos="492.80" arrivalSpeed="8.25" duration="129.00" routeLength="995.01" waitingTime="0.00" waitingCount="0" stopTime="0.00" timeLoss="9.55" rerouteNo="0" devices="tripinfo_southNorth.2 ssm_southNorth.2" vType="carCustom" speedFactor="0.90" vaporized=""/>
    <tripinfo id="southEast.7" depart="84.00" departLane="southJunction_0" departPos="5.10" departSpeed="5.43" departDelay="0.56" arrival="231.00" arrivalLane="junctionEast_0" arrivalPos="492.80" arrivalSpeed="7.66" duration="147.00" routeLength="989.53" waitingTime="0.00" waitingCount="0" stopTime="0.00" timeLoss="27.63" rerouteNo="0" devices="tripinfo_southEast.7 ssm_southEast.7" vType="carCustom" speedFactor="1.11" vaporized=""/>
    <tripinfo id="southEast.9" depart="90.00" departLane="southJunction_0" departPos="5.10" departSpeed="4.52" departDelay="4.66" arrival="235.00" arrivalLane="junctionEast_0" arrivalPos="492.80" arrivalSpeed="7.61" duration="145.00" routeLength="989.53" waitingTime="0.00" waitingCount="0" stopTime="0.00" timeLoss="25.35" rerouteNo="0" devices="tripinfo_southEast.9 ssm_southEast.9" vType="carCustom" speedFactor="0.99" vaporized=""/>
    <tripinfo id="westEastBottom0.9" depart="80.00" departLane="westJunction_0" departPos="5.10" departSpeed="5.85" departDelay="0.59" arrival="238.00" arrivalLane="junctionEast_1" arrivalPos="492.80" arrivalSpeed="7.92" duration="158.00" routeLength="994.90" waitingTime="3.00" waitingCount="1" stopTime="0.00" timeLoss="38.07" rerouteNo="0" devices="tripinfo_westEastBottom0.9 ssm_westEastBottom0.9" vType="carCustom" speedFactor="1.11" vaporized=""/>
    <tripinfo id="westEastTop.11" depart="61.00" departLane="westJunction_1" departPos="5.10" departSpeed="4.29" departDelay="0.04" arrival="243.00" arrivalLane="junctionEast_0" arrivalPos="492.80" arrivalSpeed="7.38" duration="182.00" routeLength="994.90" waitingTime="4.00" waitingCount="1" stopTime="0.00" timeLoss="62.05" rerouteNo="0" devices="tripinfo_westEastTop.11 ssm_westEastTop.11" vType="carCustom" speedFactor="1.01" vaporized=""/>
    <tripinfo id="westEastTop.12" depart="64.00" departLane="westJunction_1" departPos="5.10" departSpeed="5.57" departDelay="1.86" arrival="249.00" arrivalLane="junctionEast_0" arrivalPos="492.80" arrivalSpeed="8.09" duration="185.00" routeLength="994.90" waitingTime="1.00" waitingCount="1" stopTime="0.00" timeLoss="64.62" rerouteNo="0" devices="tripinfo_westEastTop.12 ssm_westEastTop.12" vType="carCustom" speedFactor="1.13" vaporized=""/>
    <tripinfo id="southNorth.3" depart="105.00" departLane="southJunction_1" departPos="5.10" departSpeed="3.69" departDelay="4.53" arrival="249.00" arrivalLane="junctionNorth_0" arrivalPos="492.80" arrivalSpeed="7.91" duration="144.00" routeLength="995.01" waitingTime="1.00" waitingCount="1" stopTime="0.00" timeLoss="23.89" rerouteNo="0" devices="tripinfo_southNorth.3 ssm_southNorth.3" vType="carCustom" speedFactor="1.17" vaporized=""/>
    <tripinfo id="southEast.12" depart="100.00" departLane="southJunction_0" departPos="5.10" departSpeed="3.39" departDelay="0.62" arrival="252.00" arrivalLane="junctionEast_0" arrivalPos="492.80" arrivalSpeed="7.97" duration="152.00" routeLength="989.53" waitingTime="0.00" waitingCount="0" stopTime="0.00" timeLoss="32.21" rerouteNo="0" devices="tripinfo_southEast.12 ssm_southEast.12" vType="carCustom" speedFactor="1.17" vaporized=""/>
    <tripinfo id="southEast.8" depart="87.00" departLane="southJunction_0" departPos="5.10" departSpeed="6.67" departDelay="2.32" arrival="255.00" arrivalLane="junctionEast_0" arrivalPos="492.80" arrivalSpeed="7.32" duration="168.00" routeLength="989.53" waitingTime="0.00" waitingCount="0" stopTime="0.00" timeLoss="48.34" rerouteNo="0" devices="tripinfo_southEast.8 ssm_southEast.8" vType="carCustom" speedFactor="0.99" vaporized=""/>
    <tripinfo id="westEastBottom0.11" depart="90.00" departLane="westJunction_0" departPos="5.10" departSpeed="6.70" departDelay="0.68" arrival="257.00" arrivalLane="junctionEast_1" arrivalPos="492.80" arrivalSpeed="7.93" duration="167.00" routeLength="994.90" waitingTime="4.00" waitingCount="1" stopTime="0.00" timeLoss="47.55" rerouteNo="0" devices="tripinfo_westEastBottom0.11 ssm_westEastBottom0.11" vType="carCustom" speedFactor="1.25" vaporized=""/>
    <tripinfo id="southNorth.4" depart="109.00" departLane="southJunction_1" departPos="5.10" departSpeed="3.79" departDelay="3.56" arrival="259.00" arrivalLane="junctionNorth_0" arrivalPos="492.80" arrivalSpeed="7.09" duration="150.00" routeLength="995.01" waitingTime="2.00" waitingCount="1" stopTime="0.00" timeLoss="30.04" rerouteNo="0" devices="tripinfo_southNorth.4 ssm_southNorth.4" vType="carCustom" speedFactor="1.08" vaporized=""/>
    <tripinfo id="southEast.10" depart="94.00" departLane="southJunction_0" departPos="5.10" departSpeed="4.79" departDelay="4.65" arrival="260.00" arrivalLane="junctionEast_0" arrivalPos="492.80" arrivalSpeed="7.30" duration="166.00" routeLength="989.53" waitingTime="0.00" waitingCount="0" stopTime="0.00" timeLoss="46.68" rerouteNo="0" devices="tripinfo_southEast.10 ssm_southEast.10" vType="carCustom" speedFactor="1.03" vaporized=""/>
    <tripinfo id="westEastTop.13" depart="68.00" departLane="westJunction_1" departPos="5.10" departSpeed="3.33" departDelay="2.82" arrival="263.00" arrivalLane="junctionEast_0" arrivalPos="492.80" arrivalSpeed="7.49" duration="195.00" routeLength="994.90" waitingTime="1.00" waitingCount="1" stopTime="0.00" timeLoss="75.54" rerouteNo="0" devices="tripinfo_westEastTop.13 ssm_westEastTop.13" vType="carCustom" speedFactor="0.79" vaporized=""/>
    <tripinfo id="westEastBottom0.12" depart="104.00" departLane="westJunction_0" departPos="5.10" departSpeed="7.09" departDelay="0.96" arrival="268.00" arrivalLane="junctionEast_0" arrivalPos="492.80" arrivalSpeed="7.47" duration="164.00" routeLength="994.90" waitingTime="4.00" waitingCount="1" stopTime="0.00" timeLoss="43.75" rerouteNo="0" devices="tripinfo_westEastBottom0.12 ssm_westEastBottom0.12" vType="carCustom" speedFactor="0.94" vaporized=""/>
    <tripinfo id="southNorth.5" depart="114.00" departLane="southJunction_1" departPos="5.10" departSpeed="2.96" departDelay="5.96" arrival="268.00" arrivalLane="junctionNorth_0" arrivalPos="492.80" arrivalSpeed="7.50" duration="154.00" routeLength="995.01" waitingTime="3.00" waitingCount="1" stopTime="0.00" timeLoss="34.04" rerouteNo="0" devices="tripinfo_southNorth.5 ssm_southNorth.5" vType="carCustom" speedFactor="1.14" vaporized=""/>
    <tripinfo id="westEastTop.15" depart="78.00" departLane="westJunction_1" departPos="5.10" departSpeed="3.05" departDelay="6.18" arrival="272.00" arrivalLane="junctionEast_0" arrivalPos="492.80" arrivalSpeed="7.97" duration="194.00" routeLength="994.90" waitingTime="5.00" waitingCount="1" stopTime="0.00" timeLoss="73.83" rerouteNo="0" devices="tripinfo_westEastTop.15 ssm_westEastTop.15" vType="carCustom" speedFactor="1.07" vaporized=""/>
    <tripinfo id="westEastTop.14" depart="73.00" departLane="westJunction_1" departPos="5.10" departSpeed="3.28" departDelay="4.50" arrival="274.00" arrivalLane="junctionEast_0" arrivalPos="492.80" arrivalSpeed="6.91" duration="201.00" routeLength="994.90" waitingTime="4.00" waitingCount="1" stopTime="0.00" timeLoss="81.54" rerouteNo="0" devices="tripinfo_westEastTop.14 ssm_westEastTop.14" vType="carCustom" speedFactor="1.10" vaporized=""/>
    <tripinfo id="southEast.11" depart="97.00" departLane="southJunction_0" departPos="5.10" departSpeed="5.50" departDelay="3.11" arrival="277.00" arrivalLane="junctionEast_1" arrivalPos="492.80" arrivalSpeed="8.03" duration="180.00" routeLength="989.53" waitingTime="3.00" waitingCount="1" stopTime="0.00" timeLoss="60.57" rerouteNo="0" devices="tripinfo_southEast.11 ssm_southEast.11" vType="carCustom" speedFactor="1.09" vaporized=""/>
    <tripinfo id="southNorth.6" depart="119.00" departLane="southJunction_1" departPos="5.10" departSpeed="3.75" departDelay="6.17" arrival="278.00" arrivalLane="junctionNorth_0" arrivalPos="492.80" arrivalSpeed="8.17" duration="159.00" routeLength="995.01" waitingTime="4.00" waitingCount="1" stopTime="0.00" timeLoss="39.38" rerouteNo="0" devices="tripinfo_southNorth.6 ssm_southNorth.6" vType="carCustom" speedFactor="1.20" vaporized=""/>
    <tripinfo id="southEast.13" depart="108.00" departLane="southJunction_0" departPos="5.10" departSpeed="5.58" departDelay="0.10" arrival="279.00" arrivalLane="junctionEast_0" arrivalPos="492.80" arrivalSpeed="8.19" duration="171.00" routeLength="989.53" waitingTime="3.00" waitingCount="1" stopTime="0.00" timeLoss="51.89" rerouteNo="0" devices="tripinfo_southEast.13 ssm_southEast.13" vType="carCustom" speedFactor="1.01" vaporized=""/>
    <tripinfo id="southEast.21" depart="187.00" departLane="southJunction_0" departPos="5.10" departSpeed="6.30" departDelay="0.42" arrival="283.00" arrivalLane="junctionEast_0" arrivalPos="492.80" arrivalSpeed="5.11" duration="96.00" routeLength="989.53" waitingTime="6.00" waitingCount="2" stopTime="0.00" timeLoss="35.99" rerouteNo="0" devices="tripinfo_southEast.21 ssm_southEast.21" vType="carCustom" speedFactor="1.06" vaporized="teleport"/>
    <tripinfo id="westEastBottom0.13" depart="107.00" departLane="westJunction_0" departPos="5.10" departSpeed="7.53" departDelay="3.65" arrival="284.00" arrivalLane="junctionEast_0" arrivalPos="492.80" arrivalSpeed="7.88" duration="177.00" routeLength="994.90" waitingTime="4.00" waitingCount="1" stopTime="0.00" timeLoss="56.77" rerouteNo="0" devices="tripinfo_westEastBottom0.13 ssm_westEastBottom0.13" vType="carCustom" speedFactor="1.16" vaporized=""/>
    <tripinfo id="westEastBottom0.14" depart="110.00" departLane="westJunction_0" departPos="5.10" departSpeed="5.07" departDelay="0.06" arrival="286.00" arrivalLane="junctionEast_1" arrivalPos="492.80" arrivalSpeed="7.52" duration="176.00" routeLength="994.90" waitingTime="5.00" waitingCount="2" stopTime="0.00" timeLoss="55.81" rerouteNo="0" devices="tripinfo_westEastBottom0.14 ssm_westEastBottom0.14" vType="carCustom" speedFactor="1.01" vaporized=""/>
    <tripinfo id="southNorth.7" depart="123.00" departLane="southJunction_1" departPos="5.10" departSpeed="3.50" departDelay="0.01" arrival="288.00" arrivalLane="junctionNorth_0" arrivalPos="492.80" arrivalSpeed="8.29" duration="165.00" routeLength="995.01" waitingTime="4.00" waitingCount="1" stopTime="0.00" timeLoss="45.16" rerouteNo="0" devices="tripinfo_southNorth.7 ssm_southNorth.7" vType="carCustom" speedFactor="1.13" vaporized=""/>
    <tripinfo id="westEastTop.16" depart="83.00" departLane="westJunction_1" departPos="5.10" departSpeed="3.53" departDelay="8.63" arrival="289.00" arrivalLane="junctionEast_0" arrivalPos="492.80" arrivalSpeed="7.33" duration="206.00" routeLength="994.90" waitingTime="5.00" waitingCount="1" stopTime="0.00" timeLoss="86.41" rerouteNo="0" devices="tripinfo_westEastTop.16 ssm_westEastTop.16" vType="carCustom" speedFactor="1.13" vaporized=""/>
    <tripinfo id="westEastTop.17" depart="89.00" departLane="westJunction_1" departPos="5.10" departSpeed="3.22" departDelay="0.29" arrival="293.00" arrivalLane="junctionEast_0" arrivalPos="492.80" arrivalSpeed="8.30" duration="204.00" routeLength="994.90" waitingTime="8.00" waitingCount="2" stopTime="0.00" timeLoss="84.55" rerouteNo="0" devices="tripinfo_westEastTop.17 ssm_westEastTop.17" vType="carCustom" speedFactor="0.81" vaporized=""/>
    <tripinfo id="southEast.14" depart="113.00" departLane="southJunction_0" departPos="5.10" departSpeed="6.41" departDelay="0.82" arrival="295.00" arrivalLane="junctionEast_1" arrivalPos="492.80" arrivalSpeed="7.50" duration="182.00" routeLength="989.53" waitingTime="4.00" waitingCount="1" stopTime="0.00" timeLoss="62.37" rerouteNo="0" devices="tripinfo_southEast.14 ssm_southEast.14" vType="carCustom" speedFactor="1.03" vaporized=""/>
    <tripinfo id="southNorth.8" depart="128.00" departLane="southJunction_1" departPos="5.10" departSpeed="2.52" departDelay="2.48" arrival="298.00" arrivalLane="junctionNorth_0" arrivalPos="492.80" arrivalSpeed="7.36" duration="170.00" routeLength="995.01" waitingTime="6.00" waitingCount="2" stopTime="0.00" timeLoss="50.04" rerouteNo="0" devices="tripinfo_southNorth.8 ssm_southNorth.8" vType="carCustom" speedFactor="0.91" vaporized=""/>
    <tripinfo id="westEastBottom0.15" depart="123.00" departLane="westJunction_0" departPos="5.10" departSpeed="5.69" departDelay="0.76" arrival="300.00" arrivalLane="junctionEast_0" arrivalPos="492.80" arrivalSpeed="8.24" duration="177.00" routeLength="994.90" waitingTime="4.00" waitingCount="2" stopTime="0.00" timeLoss="57.01" rerouteNo="0" devices="tripinfo_westEastBottom0.15 ssm_westEastBottom0.15" vType="carCustom" speedFactor="1.09" vaporized=""/>
    <tripinfo id="southEast.15" depart="134.00" departLane="southJunction_0" departPos="5.10" departSpeed="5.80" departDelay="0.68" arrival="304.00" arrivalLane="junctionEast_0" arrivalPos="492.80" arrivalSpeed="8.29" duration="170.00" routeLength="989.53" waitingTime="4.00" waitingCount="1" stopTime="0.00" timeLoss="49.97" rerouteNo="0" devices="tripinfo_southEast.15 ssm_southEast.15" vType="carCustom" speedFactor="0.91" vaporized=""/>
    <tripinfo id="westEastBottom0.16" depart="126.00" departLane="westJunction_0" departPos="5.10" departSpeed="7.91" departDelay="0.94" arrival="307.00" arrivalLane="junctionEast_0" arrivalPos="492.80" arrivalSpeed="8.13" duration="181.00" routeLength="994.90" waitingTime="7.00" waitingCount="2" stopTime="0.00" timeLoss="61.51" rerouteNo="0" devices="tripinfo_westEastBottom0.16 ssm_westEastBottom0.16" vType="carCustom" speedFactor="1.00" vaporized=""/>
    <tripinfo id="southNorth.9" depart="133.00" departLane="southJunction_1" departPos="5.10" departSpeed="2.63" departDelay="4.05" arrival="308.00" arrivalLane="junctionNorth_0" arrivalPos="492.80" arrivalSpeed="7.58" duration="175.00" routeLength="995.01" waitingTime="7.00" waitingCount="2" stopTime="0.00" timeLoss="55.27" rerouteNo="0" devices="tripinfo_southNorth.9 ssm_southNorth.9" vType="carCustom" speedFactor="1.01" vaporized=""/>
    <tripinfo id="westEastTop.19" depart="99.00" departLane="westJunction_1" departPos="5.10" departSpeed="2.41" departDelay="8.44" arrival="309.00" arrivalLane="junctionEast_0" arrivalPos="492.80" arrivalSpeed="7.12" duration="210.00" routeLength="994.90" waitingTime="3.00" waitingCount="1" stopTime="0.00" timeLoss="90.54" rerouteNo="0" devices="tripinfo_westEastTop.19 ssm_westEastTop.19" vType="carCustom" speedFactor="1.13" vaporized=""/>