<?xml version="1.0" encoding="UTF-8"?>

<!-- generated on 2025-04-29 08:50:19 by Eclipse SUMO sumo Version 1.20.0
<configuration xmlns:xsi="http://www.w3.org/2001/XMLSchema-instance" xsi:noNamespaceSchemaLocation="http://sumo.dlr.de/xsd/sumoConfiguration.xsd">

    <input>
        <net-file value="nets/2lane_unprotected_right/2lane_unprotected_right.net.xml"/>
        <route-files value="nets/2lane_unprotected_right/2lane_unprotected_right.rou.xml"/>
    </input>

    <output>
        <tripinfo-output value="traces/transs50f0.5_s50_f1_random/0179_tripinfo.xml"/>
        <collision-output value="traces/transs50f0.5_s50_f1_random/0179_collisions.xml"/>
        <statistic-output value="traces/transs50f0.5_s50_f1_random/0179_statistics.xml"/>
    </output>

    <processing>
        <collision.action value="teleport"/>
        <collision.check-junctions value="true"/>
        <time-to-teleport value="-1"/>
        <waiting-time-memory value="1000"/>
        <max-depart-delay value="-1"/>
        <default.speeddev value="0.1"/>
    </processing>

    <report>
        <no-warnings value="true"/>
    </report>

    <ssm_device>
        <device.ssm.probability value="1.0"/>
        <device.ssm.measures value="BR"/>
        <device.ssm.file value="/Users/finn/Code/CausalKnowledgeTransfer-4-SafeRL/traces/transs50f0.5_s50_f1_random/0179_ssm.xml"/>
    </ssm_device>

    <traci_server>
        <remote-port value="64615"/>
    </traci_server>

    <random_number>
        <random value="true"/>
    </random_number>

</configuration>
-->

<tripinfos xmlns:xsi="http://www.w3.org/2001/XMLSchema-instance" xsi:noNamespaceSchemaLocation="http://sumo.dlr.de/xsd/tripinfo_file.xsd">
    <tripinfo id="westEastTop.0" depart="1.00" departLane="westJunction_1" departPos="5.10" departSpeed="13.89" departDelay="0.39" arrival="77.00" arrivalLane="junctionEast_1" arrivalPos="492.80" arrivalSpeed="12.74" duration="76.00" routeLength="994.90" waitingTime="0.00" waitingCount="0" stopTime="0.00" timeLoss="3.72" rerouteNo="0" devices="tripinfo_westEastTop.0 ssm_westEastTop.0" vType="carCustom" speedFactor="1.09" vaporized=""/>
    <tripinfo id="westEastBottom0.0" depart="1.00" departLane="westJunction_0" departPos="5.10" departSpeed="13.89" departDelay="0.68" arrival="77.00" arrivalLane="junctionEast_0" arrivalPos="492.80" arrivalSpeed="13.85" duration="76.00" routeLength="994.90" waitingTime="0.00" waitingCount="0" stopTime="0.00" timeLoss="4.14" rerouteNo="0" devices="tripinfo_westEastBottom0.0 ssm_westEastBottom0.0" vType="carCustom" speedFactor="1.19" vaporized=""/>
    <tripinfo id="southEast.0" depart="2.00" departLane="southJunction_0" departPos="5.10" departSpeed="13.89" departDelay="0.21" arrival="86.00" arrivalLane="junctionEast_0" arrivalPos="492.80" arrivalSpeed="13.39" duration="84.00" routeLength="989.53" waitingTime="0.00" waitingCount="0" stopTime="0.00" timeLoss="11.90" rerouteNo="0" devices="tripinfo_southEast.0 ssm_southEast.0" vType="carCustom" speedFactor="0.92" vaporized=""/>
    <tripinfo id="southNorth.0" depart="4.00" departLane="southJunction_1" departPos="5.10" departSpeed="13.89" departDelay="0.04" arrival="87.00" arrivalLane="junctionNorth_0" arrivalPos="492.80" arrivalSpeed="12.71" duration="83.00" routeLength="995.01" waitingTime="0.00" waitingCount="0" stopTime="0.00" timeLoss="10.93" rerouteNo="0" devices="tripinfo_southNorth.0 ssm_southNorth.0" vType="carCustom" speedFactor="1.18" vaporized=""/>
    <tripinfo id="westEastBottom0.1" depart="12.00" departLane="westJunction_0" departPos="5.10" departSpeed="13.86" departDelay="0.71" arrival="94.00" arrivalLane="junctionEast_0" arrivalPos="492.80" arrivalSpeed="13.86" duration="82.00" routeLength="994.90" waitingTime="0.00" waitingCount="0" stopTime="0.00" timeLoss="9.89" rerouteNo="0" devices="tripinfo_westEastBottom0.1 ssm_westEastBottom0.1" vType="carCustom" speedFactor="0.78" vaporized=""/>
    <tripinfo id="westEastTop.1" depart="4.00" departLane="westJunction_1" departPos="5.10" departSpeed="12.74" departDelay="0.65" arrival="95.00" arrivalLane="junctionEast_0" arrivalPos="492.80" arrivalSpeed="13.34" duration="91.00" routeLength="994.90" waitingTime="3.00" waitingCount="1" stopTime="0.00" timeLoss="18.48" rerouteNo="0" devices="tripinfo_westEastTop.1 ssm_westEastTop.1" vType="carCustom" speedFactor="0.96" vaporized=""/>
    <tripinfo id="southNorth.1" depart="8.00" departLane="southJunction_1" departPos="5.10" departSpeed="12.63" departDelay="0.81" arrival="102.00" arrivalLane="junctionNorth_0" arrivalPos="492.80" arrivalSpeed="13.85" duration="94.00" routeLength="995.01" waitingTime="3.00" waitingCount="1" stopTime="0.00" timeLoss="21.78" rerouteNo="0" devices="tripinfo_southNorth.1 ssm_southNorth.1" vType="carCustom" speedFactor="1.12" vaporized=""/>
    <tripinfo id="southEast.1" depart="5.00" departLane="southJunction_0" departPos="5.10" departSpeed="12.74" departDelay="0.45" arrival="103.00" arrivalLane="junctionEast_0" arrivalPos="492.80" arrivalSpeed="12.83" duration="98.00" routeLength="989.53" waitingTime="4.00" waitingCount="1" stopTime="0.00" timeLoss="25.69" rerouteNo="0" devices="tripinfo_southEast.1 ssm_southEast.1" vType="carCustom" speedFactor="0.96" vaporized=""/>
    <tripinfo id="westEastTop.2" depart="8.00" departLane="westJunction_1" departPos="5.10" departSpeed="8.43" departDelay="0.88" arrival="103.00" arrivalLane="junctionEast_1" arrivalPos="492.80" arrivalSpeed="13.11" duration="95.00" routeLength="994.90" waitingTime="0.00" waitingCount="0" stopTime="0.00" timeLoss="22.90" rerouteNo="0" devices="tripinfo_westEastTop.2 ssm_westEastTop.2" vType="carCustom" speedFactor="0.90" vaporized=""/>
    <tripinfo id="westEastBottom0.2" depart="14.00" departLane="westJunction_0" departPos="5.10" departSpeed="12.77" departDelay="1.19" arrival="111.00" arrivalLane="junctionEast_1" arrivalPos="492.80" arrivalSpeed="13.81" duration="97.00" routeLength="994.90" waitingTime="5.00" waitingCount="1" stopTime="0.00" timeLoss="25.28" rerouteNo="0" devices="tripinfo_westEastBottom0.2 ssm_westEastBottom0.2" vType="carCustom" speedFactor="1.03" vaporized=""/>
    <tripinfo id="westEastBottom0.3" depart="20.00" departLane="westJunction_0" departPos="5.10" departSpeed="7.79" departDelay="0.40" arrival="112.00" arrivalLane="junctionEast_0" arrivalPos="492.80" arrivalSpeed="13.07" duration="92.00" routeLength="994.90" waitingTime="0.00" waitingCount="0" stopTime="0.00" timeLoss="19.52" rerouteNo="0" devices="tripinfo_westEastBottom0.3 ssm_westEastBottom0.3" vType="carCustom" speedFactor="1.11" vaporized=""/>
    <tripinfo id="southNorth.2" depart="15.00" departLane="southJunction_1" departPos="5.10" departSpeed="9.96" departDelay="0.08" arrival="113.00" arrivalLane="junctionNorth_0" arrivalPos="492.80" arrivalSpeed="13.56" duration="98.00" routeLength="995.01" waitingTime="1.00" waitingCount="1" stopTime="0.00" timeLoss="25.50" rerouteNo="0" devices="tripinfo_southNorth.2 ssm_southNorth.2" vType="carCustom" speedFactor="1.09" vaporized=""/>
    <tripinfo id="westEastTop.3" depart="12.00" departLane="westJunction_1" departPos="5.10" departSpeed="7.08" departDelay="0.74" arrival="120.00" arrivalLane="junctionEast_1" arrivalPos="492.80" arrivalSpeed="13.84" duration="108.00" routeLength="994.90" waitingTime="1.00" waitingCount="1" stopTime="0.00" timeLoss="36.10" rerouteNo="0" devices="tripinfo_westEastTop.3 ssm_westEastTop.3" vType="carCustom" speedFactor="0.84" vaporized=""/>
    <tripinfo id="westEastBottom0.4" depart="34.00" departLane="westJunction_0" departPos="5.10" departSpeed="8.77" departDelay="0.98" arrival="120.00" arrivalLane="junctionEast_0" arrivalPos="492.80" arrivalSpeed="13.45" duration="86.00" routeLength="994.90" waitingTime="0.00" waitingCount="0" stopTime="0.00" timeLoss="14.08" rerouteNo="0" devices="tripinfo_westEastBottom0.4 ssm_westEastBottom0.4" vType="carCustom" speedFactor="1.08" vaporized=""/>
    <tripinfo id="southNorth.3" depart="28.00" departLane="southJunction_1" departPos="5.10" departSpeed="10.36" departDelay="0.83" arrival="122.00" arrivalLane="junctionNorth_0" arrivalPos="492.80" arrivalSpeed="13.70" duration="94.00" routeLength="995.01" waitingTime="1.00" waitingCount="1" stopTime="0.00" timeLoss="22.21" rerouteNo="0" devices="tripinfo_southNorth.3 ssm_southNorth.3" vType="carCustom" speedFactor="0.90" vaporized=""/>
    <tripinfo id="westEastTop.4" depart="19.00" departLane="westJunction_1" departPos="5.10" departSpeed="6.14" departDelay="0.92" arrival="129.00" arrivalLane="junctionEast_1" arrivalPos="492.80" arrivalSpeed="12.99" duration="110.00" routeLength="994.90" waitingTime="2.00" waitingCount="1" stopTime="0.00" timeLoss="38.15" rerouteNo="0" devices="tripinfo_westEastTop.4 ssm_westEastTop.4" vType="carCustom" speedFactor="1.08" vaporized=""/>
    <tripinfo id="southEast.2" depart="42.00" departLane="southJunction_0" departPos="5.10" departSpeed="11.08" departDelay="0.12" arrival="129.00" arrivalLane="junctionEast_0" arrivalPos="492.80" arrivalSpeed="12.79" duration="87.00" routeLength="989.53" waitingTime="0.00" waitingCount="0" stopTime="0.00" timeLoss="14.10" rerouteNo="0" devices="tripinfo_southEast.2 ssm_southEast.2" vType="carCustom" speedFactor="1.02" vaporized=""/>
    <tripinfo id="westEastTop.5" depart="25.00" departLane="westJunction_1" departPos="5.10" departSpeed="6.22" departDelay="0.55" arrival="138.00" arrivalLane="junctionEast_1" arrivalPos="492.80" arrivalSpeed="12.88" duration="113.00" routeLength="994.90" waitingTime="0.00" waitingCount="0" stopTime="0.00" timeLoss="40.82" rerouteNo="0" devices="tripinfo_westEastTop.5 ssm_westEastTop.5" vType="carCustom" speedFactor="0.96" vaporized=""/>
    <tripinfo id="westEastTop.6" depart="28.00" departLane="westJunction_1" departPos="5.10" departSpeed="5.54" departDelay="0.75" arrival="138.00" arrivalLane="junctionEast_0" arrivalPos="492.80" arrivalSpeed="13.27" duration="110.00" routeLength="994.90" waitingTime="0.00" waitingCount="0" stopTime="0.00" timeLoss="38.09" rerouteNo="0" devices="tripinfo_westEastTop.6 ssm_westEastTop.6" vType="carCustom" speedFactor="1.00" vaporized=""/>
    <tripinfo id="southNorth.4" depart="38.00" departLane="southJunction_1" departPos="5.10" departSpeed="11.44" departDelay="0.97" arrival="142.00" arrivalLane="junctionNorth_0" arrivalPos="492.80" arrivalSpeed="13.39" duration="104.00" routeLength="995.01" waitingTime="12.00" waitingCount="1" stopTime="0.00" timeLoss="31.82" rerouteNo="0" devices="tripinfo_southNorth.4 ssm_southNorth.4" vType="carCustom" speedFactor="0.91" vaporized=""/>
    <tripinfo id="westEastTop.7" depart="32.00" departLane="westJunction_1" departPos="5.10" departSpeed="4.53" departDelay="0.83" arrival="147.00" arrivalLane="junctionEast_1" arrivalPos="492.80" arrivalSpeed="13.24" duration="115.00" routeLength="994.90" waitingTime="0.00" waitingCount="0" stopTime="0.00" timeLoss="43.12" rerouteNo="0" devices="tripinfo_westEastTop.7 ssm_westEastTop.7" vType="carCustom" speedFactor="0.97" vaporized=""/>
    <tripinfo id="southEast.3" depart="61.00" departLane="southJunction_0" departPos="5.10" departSpeed="13.57" departDelay="0.01" arrival="147.00" arrivalLane="junctionEast_0" arrivalPos="492.80" arrivalSpeed="13.08" duration="86.00" routeLength="989.53" waitingTime="0.00" waitingCount="0" stopTime="0.00" timeLoss="13.71" rerouteNo="0" devices="tripinfo_southEast.3 ssm_southEast.3" vType="carCustom" speedFactor="1.13" vaporized=""/>
    <tripinfo id="southNorth.5" depart="57.00" departLane="southJunction_1" departPos="5.10" departSpeed="12.36" departDelay="0.78" arrival="152.00" arrivalLane="junctionNorth_0" arrivalPos="492.80" arrivalSpeed="13.21" duration="95.00" routeLength="995.01" waitingTime="4.00" waitingCount="1" stopTime="0.00" timeLoss="22.65" rerouteNo="0" devices="tripinfo_southNorth.5 ssm_southNorth.5" vType="carCustom" speedFactor="0.79" vaporized=""/>
    <tripinfo id="westEastBottom0.5" depart="71.00" departLane="westJunction_0" departPos="5.10" departSpeed="13.60" departDelay="0.03" arrival="156.00" arrivalLane="junctionEast_0" arrivalPos="492.80" arrivalSpeed="12.82" duration="85.00" routeLength="994.90" waitingTime="0.00" waitingCount="0" stopTime="0.00" timeLoss="12.76" rerouteNo="0" devices="tripinfo_westEastBottom0.5 ssm_westEastBottom0.5" vType="carCustom" speedFactor="0.95" vaporized=""/>
    <tripinfo id="westEastTop.8" depart="37.00" departLane="westJunction_1" departPos="5.10" departSpeed="3.59" departDelay="0.02" arrival="157.00" arrivalLane="junctionEast_1" arrivalPos="492.80" arrivalSpeed="13.45" duration="120.00" routeLength="994.90" waitingTime="1.00" waitingCount="1" stopTime="0.00" timeLoss="47.85" rerouteNo="0" devices="tripinfo_westEastTop.8 ssm_westEastTop.8" vType="carCustom" speedFactor="1.00" vaporized=""/>
    <tripinfo id="southNorth.6" depart="65.00" departLane="southJunction_1" departPos="5.10" departSpeed="13.02" departDelay="0.08" arrival="162.00" arrivalLane="junctionNorth_0" arrivalPos="492.80" arrivalSpeed="13.58" duration="97.00" routeLength="995.01" waitingTime="4.00" waitingCount="1" stopTime="0.00" timeLoss="24.81" rerouteNo="0" devices="tripinfo_southNorth.6 ssm_southNorth.6" vType="carCustom" speedFactor="0.94" vaporized=""/>
    <tripinfo id="southEast.4" depart="67.00" departLane="southJunction_0" departPos="5.10" departSpeed="13.13" departDelay="0.76" arrival="164.00" arrivalLane="junctionEast_0" arrivalPos="492.80" arrivalSpeed="13.32" duration="97.00" routeLength="989.53" waitingTime="0.00" waitingCount="0" stopTime="0.00" timeLoss="24.66" rerouteNo="0" devices="tripinfo_southEast.4 ssm_southEast.4" vType="carCustom" speedFactor="1.06" vaporized=""/>
    <tripinfo id="westEastBottom0.6" depart="78.00" departLane="westJunction_0" departPos="5.10" departSpeed="13.46" departDelay="0.25" arrival="166.00" arrivalLane="junctionEast_1" arrivalPos="492.80" arrivalSpeed="12.80" duration="88.00" routeLength="994.90" waitingTime="0.00" waitingCount="0" stopTime="0.00" timeLoss="15.87" rerouteNo="0" devices="tripinfo_westEastBottom0.6 ssm_westEastBottom0.6" vType="carCustom" speedFactor="0.90" vaporized=""/>
    <tripinfo id="southNorth.7" depart="70.00" departLane="southJunction_1" departPos="5.10" departSpeed="12.43" departDelay="0.76" arrival="171.00" arrivalLane="junctionNorth_0" arrivalPos="492.80" arrivalSpeed="13.18" duration="101.00" routeLength="995.01" waitingTime="0.00" waitingCount="0" stopTime="0.00" timeLoss="28.88" rerouteNo="0" devices="tripinfo_southNorth.7 ssm_southNorth.7" vType="carCustom" speedFactor="0.98" vaporized=""/>
    <tripinfo id="southEast.5" depart="86.00" departLane="southJunction_0" departPos="5.10" departSpeed="12.04" departDelay="0.69" arrival="172.00" arrivalLane="junctionEast_0" arrivalPos="492.80" arrivalSpeed="13.12" duration="86.00" routeLength="989.53" waitingTime="0.00" waitingCount="0" stopTime="0.00" timeLoss="13.27" rerouteNo="0" devices="tripinfo_southEast.5 ssm_southEast.5" vType="carCustom" speedFactor="0.98" vaporized=""/>
    <tripinfo id="westEastTop.9" depart="41.00" departLane="westJunction_1" departPos="5.10" departSpeed="2.90" departDelay="1.62" arrival="175.00" arrivalLane="junctionEast_0" arrivalPos="492.80" arrivalSpeed="12.69" duration="134.00" routeLength="994.90" waitingTime="3.00" waitingCount="1" stopTime="0.00" timeLoss="61.47" rerouteNo="0" devices="tripinfo_westEastTop.9 ssm_westEastTop.9" vType="carCustom" speedFactor="1.03" vaporized=""/>
    <tripinfo id="westEastBottom0.7" depart="81.00" departLane="westJunction_0" departPos="5.10" departSpeed="11.54" departDelay="0.35" arrival="180.00" arrivalLane="junctionEast_0" arrivalPos="492.80" arrivalSpeed="13.45" duration="99.00" routeLength="994.90" waitingTime="0.00" waitingCount="0" stopTime="0.00" timeLoss="27.13" rerouteNo="0" devices="tripinfo_westEastBottom0.7 ssm_westEastBottom0.7" vType="carCustom" speedFactor="1.02" vaporized=""/>
    <tripinfo id="southNorth.8" depart="82.00" departLane="southJunction_1" departPos="5.10" departSpeed="10.40" departDelay="0.57" arrival="180.00" arrivalLane="junctionNorth_0" arrivalPos="492.80" arrivalSpeed="13.11" duration="98.00" routeLength="995.01" waitingTime="0.00" waitingCount="0" stopTime="0.00" timeLoss="25.60" rerouteNo="0" devices="tripinfo_southNorth.8 ssm_southNorth.8" vType="carCustom" speedFactor="0.86" vaporized=""/>
    <tripinfo id="westEastTop.10" depart="54.00" departLane="westJunction_1" departPos="5.10" departSpeed="4.07" departDelay="0.17" arrival="183.00" arrivalLane="junctionEast_1" arrivalPos="492.80" arrivalSpeed="13.17" duration="129.00" routeLength="994.90" waitingTime="3.00" waitingCount="1" stopTime="0.00" timeLoss="56.90" rerouteNo="0" devices="tripinfo_westEastTop.10 ssm_westEastTop.10" vType="carCustom" speedFactor="1.13" vaporized=""/>
    <tripinfo id="southEast.6" depart="89.00" departLane="southJunction_0" departPos="5.10" departSpeed="12.63" departDelay="0.64" arrival="188.00" arrivalLane="junctionEast_0" arrivalPos="492.80" arrivalSpeed="12.65" duration="99.00" routeLength="989.53" waitingTime="0.00" waitingCount="0" stopTime="0.00" timeLoss="26.37" rerouteNo="0" devices="tripinfo_southEast.6 ssm_southEast.6" vType="carCustom" speedFactor="1.06" vaporized=""/>
    <tripinfo id="southNorth.9" depart="93.00" departLane="southJunction_1" departPos="5.10" departSpeed="11.78" departDelay="0.93" arrival="188.00" arrivalLane="junctionNorth_0" arrivalPos="492.80" arrivalSpeed="13.27" duration="95.00" routeLength="995.01" waitingTime="0.00" waitingCount="0" stopTime="0.00" timeLoss="22.98" rerouteNo="0" devices="tripinfo_southNorth.9 ssm_southNorth.9" vType="carCustom" speedFactor="1.02" vaporized=""/>
    <tripinfo id="westEastBottom0.8" depart="88.00" departLane="westJunction_0" departPos="5.10" departSpeed="8.09" departDelay="0.49" arrival="191.00" arrivalLane="junctionEast_0" arrivalPos="492.80" arrivalSpeed="13.22" duration="103.00" routeLength="994.90" waitingTime="0.00" waitingCount="0" stopTime="0.00" timeLoss="30.84" rerouteNo="0" devices="tripinfo_westEastBottom0.8 ssm_westEastBottom0.8" vType="carCustom" speedFactor="0.98" vaporized=""/>
    <tripinfo id="southNorth.10" depart="95.00" departLane="southJunction_1" departPos="5.10" departSpeed="13.59" departDelay="2.24" arrival="196.00" arrivalLane="junctionNorth_0" arrivalPos="492.80" arrivalSpeed="13.63" duration="101.00" routeLength="995.01" waitingTime="0.00" waitingCount="0" stopTime="0.00" timeLoss="29.16" rerouteNo="0" devices="tripinfo_southNorth.10 ssm_southNorth.10" vType="carCustom" speedFactor="1.06" vaporized=""/>
    <tripinfo id="westEastBottom0.9" depart="93.00" departLane="westJunction_0" departPos="5.10" departSpeed="7.95" departDelay="0.52" arrival="196.00" arrivalLane="junctionEast_0" arrivalPos="492.80" arrivalSpeed="13.46" duration="103.00" routeLength="994.90" waitingTime="0.00" waitingCount="0" stopTime="0.00" timeLoss="31.16" rerouteNo="0" devices="tripinfo_westEastBottom0.9 ssm_westEastBottom0.9" vType="carCustom" speedFactor="0.97" vaporized=""/>
    <tripinfo id="westEastTop.11" depart="58.00" departLane="westJunction_1" departPos="5.10" departSpeed="5.50" departDelay="0.98" arrival="199.00" arrivalLane="junctionEast_1" arrivalPos="492.80" arrivalSpeed="12.78" duration="141.00" routeLength="994.90" waitingTime="4.00" waitingCount="1" stopTime="0.00" timeLoss="68.54" rerouteNo="0" devices="tripinfo_westEastTop.11 ssm_westEastTop.11" vType="carCustom" speedFactor="1.01" vaporized=""/>
    <tripinfo id="southEast.7" depart="110.00" departLane="southJunction_0" departPos="5.10" departSpeed="11.76" departDelay="0.77" arrival="204.00" arrivalLane="junctionEast_0" arrivalPos="492.80" arrivalSpeed="12.81" duration="94.00" routeLength="989.53" waitingTime="0.00" waitingCount="0" stopTime="0.00" timeLoss="21.17" rerouteNo="0" devices="tripinfo_southEast.7 ssm_southEast.7" vType="carCustom" speedFactor="1.18" vaporized=""/>
    <tripinfo id="southNorth.11" depart="97.00" departLane="southJunction_1" departPos="5.10" departSpeed="10.63" departDelay="1.93" arrival="205.00" arrivalLane="junctionNorth_0" arrivalPos="492.80" arrivalSpeed="13.74" duration="108.00" routeLength="995.01" waitingTime="0.00" waitingCount="0" stopTime="0.00" timeLoss="36.06" rerouteNo="0" devices="tripinfo_southNorth.11 ssm_southNorth.11" vType="carCustom" speedFactor="0.91" vaporized=""/>
    <tripinfo id="westEastTop.12" depart="61.00" departLane="westJunction_1" departPos="5.10" departSpeed="5.31" departDelay="2.66" arrival="206.00" arrivalLane="junctionEast_0" arrivalPos="492.80" arrivalSpeed="13.21" duration="145.00" routeLength="994.90" waitingTime="4.00" waitingCount="1" stopTime="0.00" timeLoss="73.31" rerouteNo="0" devices="tripinfo_westEastTop.12 ssm_westEastTop.12" vType="carCustom" speedFactor="0.91" vaporized=""/>
    <tripinfo id="westEastBottom0.10" depart="102.00" departLane="westJunction_0" departPos="5.10" departSpeed="8.08" departDelay="0.97" arrival="212.00" arrivalLane="junctionEast_0" arrivalPos="492.80" arrivalSpeed="13.73" duration="110.00" routeLength="994.90" waitingTime="0.00" waitingCount="0" stopTime="0.00" timeLoss="37.51" rerouteNo="0" devices="tripinfo_westEastBottom0.10 ssm_westEastBottom0.10" vType="carCustom" speedFactor="0.91" vaporized=""/>
    <tripinfo id="westEastTop.13" depart="66.00" departLane="westJunction_1" departPos="5.10" departSpeed="3.91" departDelay="0.73" arrival="214.00" arrivalLane="junctionEast_1" arrivalPos="492.80" arrivalSpeed="12.60" duration="148.00" routeLength="994.90" waitingTime="5.00" waitingCount="1" stopTime="0.00" timeLoss="75.98" rerouteNo="0" devices="tripinfo_westEastTop.13 ssm_westEastTop.13" vType="carCustom" speedFactor="0.99" vaporized=""/>
    <tripinfo id="southNorth.12" depart="102.00" departLane="southJunction_1" departPos="5.10" departSpeed="5.01" departDelay="0.62" arrival="214.00" arrivalLane="junctionNorth_0" arrivalPos="492.80" arrivalSpeed="13.68" duration="112.00" routeLength="995.01" waitingTime="1.00" waitingCount="1" stopTime="0.00" timeLoss="40.06" rerouteNo="0" devices="tripinfo_southNorth.12 ssm_southNorth.12" vType="carCustom" speedFactor="1.10" vaporized=""/>
    <tripinfo id="westEastBottom0.11" depart="104.00" departLane="westJunction_0" departPos="5.10" departSpeed="8.19" departDelay="2.34" arrival="219.00" arrivalLane="junctionEast_0" arrivalPos="492.80" arrivalSpeed="13.20" duration="115.00" routeLength="994.90" waitingTime="0.00" waitingCount="0" stopTime="0.00" timeLoss="42.95" rerouteNo="0" devices="tripinfo_westEastBottom0.11 ssm_westEastBottom0.11" vType="carCustom" speedFactor="1.05" vaporized=""/>
    <tripinfo id="southEast.8" depart="127.00" departLane="southJunction_0" departPos="5.10" departSpeed="13.67" departDelay="0.41" arrival="222.00" arrivalLane="junctionEast_1" arrivalPos="492.80" arrivalSpeed="13.60" duration="95.00" routeLength="989.53" waitingTime="5.00" waitingCount="1" stopTime="0.00" timeLoss="22.87" rerouteNo="0" devices="tripinfo_southEast.8 ssm_southEast.8" vType="carCustom" speedFactor="1.01" vaporized=""/>
    <tripinfo id="southNorth.13" depart="106.00" departLane="southJunction_1" departPos="5.10" departSpeed="4.88" departDelay="0.20" arrival="223.00" arrivalLane="junctionNorth_0" arrivalPos="492.80" arrivalSpeed="12.93" duration="117.00" routeLength="995.01" waitingTime="2.00" waitingCount="1" stopTime="0.00" timeLoss="45.24" rerouteNo="0" devices="tripinfo_southNorth.13 ssm_southNorth.13" vType="carCustom" speedFactor="0.95" vaporized=""/>
    <tripinfo id="westEastBottom0.12" depart="107.00" departLane="westJunction_0" departPos="5.10" departSpeed="4.70" departDelay="3.07" arrival="226.00" arrivalLane="junctionEast_0" arrivalPos="492.80" arrivalSpeed="13.03" duration="119.00" routeLength="994.90" waitingTime="0.00" waitingCount="0" stopTime="0.00" timeLoss="47.26" rerouteNo="0" devices="tripinfo_westEastBottom0.12 ssm_westEastBottom0.12" vType="carCustom" speedFactor="1.13" vaporized=""/>
    <tripinfo id="westEastTop.14" depart="71.00" departLane="westJunction_1" departPos="5.10" departSpeed="3.44" departDelay="0.55" arrival="230.00" arrivalLane="junctionEast_0" arrivalPos="492.80" arrivalSpeed="12.97" duration="159.00" routeLength="994.90" waitingTime="5.00" waitingCount="2" stopTime="0.00" timeLoss="86.82" rerouteNo="0" devices="tripinfo_westEastTop.14 ssm_westEastTop.14" vType="carCustom" speedFactor="0.89" vaporized=""/>
    <tripinfo id="southNorth.14" depart="112.00" departLane="southJunction_1" departPos="5.10" departSpeed="5.34" departDelay="0.69" arrival="233.00" arrivalLane="junctionNorth_0" arrivalPos="492.80" arrivalSpeed="13.39" duration="121.00" routeLength="995.01" waitingTime="3.00" waitingCount="1" stopTime="0.00" timeLoss="48.79" rerouteNo="0" devices="tripinfo_southNorth.14 ssm_southNorth.14" vType="carCustom" speedFactor="0.80" vaporized=""/>
    <tripinfo id="southEast.9" depart="136.00" departLane="southJunction_0" departPos="5.10" departSpeed="12.99" departDelay="0.77" arrival="235.00" arrivalLane="junctionEast_0" arrivalPos="492.80" arrivalSpeed="13.41" duration="99.00" routeLength="989.53" waitingTime="0.00" waitingCount="0" stopTime="0.00" timeLoss="26.40" rerouteNo="0" devices="tripinfo_southEast.9 ssm_southEast.9" vType="carCustom" speedFactor="0.73" vaporized=""/>
    <tripinfo id="westEastTop.15" depart="75.00" departLane="westJunction_1" departPos="5.10" departSpeed="3.16" departDelay="2.82" arrival="237.00" arrivalLane="junctionEast_1" arrivalPos="492.80" arrivalSpeed="13.64" duration="162.00" routeLength="994.90" waitingTime="6.00" waitingCount="2" stopTime="0.00" timeLoss="90.21" rerouteNo="0" devices="tripinfo_westEastTop.15 ssm_westEastTop.15" vType="carCustom" speedFactor="1.00" vaporized=""/>
    <tripinfo id="westEastBottom0.13" depart="111.00" departLane="westJunction_0" departPos="5.10" departSpeed="3.99" departDelay="4.99" arrival="242.00" arrivalLane="junctionEast_0" arrivalPos="492.80" arrivalSpeed="13.87" duration="131.00" routeLength="994.90" waitingTime="1.00" waitingCount="1" stopTime="0.00" timeLoss="58.91" rerouteNo="0" devices="tripinfo_westEastBottom0.13 ssm_westEastBottom0.13" vType="carCustom" speedFactor="0.88" vaporized=""/>
    <tripinfo id="southNorth.15" depart="115.00" departLane="southJunction_1" departPos="5.10" departSpeed="4.71" departDelay="3.47" arrival="243.00" arrivalLane="junctionNorth_0" arrivalPos="492.80" arrivalSpeed="13.70" duration="128.00" routeLength="995.01" waitingTime="4.00" waitingCount="1" stopTime="0.00" timeLoss="55.52" rerouteNo="0" devices="tripinfo_southNorth.15 ssm_southNorth.15" vType="carCustom" speedFactor="1.05" vaporized=""/>
    <tripinfo id="westEastTop.16" depart="80.00" departLane="westJunction_1" departPos="5.10" departSpeed="2.20" departDelay="6.45" arrival="245.00" arrivalLane="junctionEast_0" arrivalPos="492.80" arrivalSpeed="12.97" duration="165.00" routeLength="994.90" waitingTime="8.00" waitingCount="2" stopTime="0.00" timeLoss="93.18" rerouteNo="0" devices="tripinfo_westEastTop.16 ssm_westEastTop.16" vType="carCustom" speedFactor="1.15" vaporized=""/>
    <tripinfo id="southEast.10" depart="138.00" departLane="southJunction_0" departPos="5.10" departSpeed="12.35" departDelay="0.83" arrival="251.00" arrivalLane="junctionEast_0" arrivalPos="492.80" arrivalSpeed="12.65" duration="113.00" routeLength="989.53" waitingTime="0.00" waitingCount="0" stopTime="0.00" timeLoss="39.94" rerouteNo="0" devices="tripinfo_southEast.10 ssm_southEast.10" vType="carCustom" speedFactor="0.82" vaporized=""/>
    <tripinfo id="southNorth.16" depart="119.00" departLane="southJunction_1" departPos="5.10" departSpeed="3.00" departDelay="3.63" arrival="252.00" arrivalLane="junctionNorth_0" arrivalPos="492.80" arrivalSpeed="13.04" duration="133.00" routeLength="995.01" waitingTime="4.00" waitingCount="1" stopTime="0.00" timeLoss="61.34" rerouteNo="0" devices="tripinfo_southNorth.16 ssm_southNorth.16" vType="carCustom" speedFactor="1.14" vaporized=""/>
    <tripinfo id="westEastBottom0.14" depart="120.00" departLane="westJunction_0" departPos="5.10" departSpeed="5.37" departDelay="0.52" arrival="253.00" arrivalLane="junctionEast_1" arrivalPos="492.80" arrivalSpeed="12.99" duration="133.00" routeLength="994.90" waitingTime="2.00" waitingCount="1" stopTime="0.00" timeLoss="60.65" rerouteNo="0" devices="tripinfo_westEastBottom0.14 ssm_westEastBottom0.14" vType="carCustom" speedFactor="1.19" vaporized=""/>
    <tripinfo id="southEast.11" depart="148.00" departLane="southJunction_0" departPos="5.10" departSpeed="9.50" departDelay="0.15" arrival="257.00" arrivalLane="junctionEast_0" arrivalPos="492.80" arrivalSpeed="13.21" duration="109.00" routeLength="989.53" waitingTime="0.00" waitingCount="0" stopTime="0.00" timeLoss="37.07" rerouteNo="0" devices="tripinfo_southEast.11 ssm_southEast.11" vType="carCustom" speedFactor="1.00" vaporized=""/>
    <tripinfo id="westEastTop.17" depart="85.00" departLane="westJunction_1" departPos="5.10" departSpeed="2.74" departDelay="10.87" arrival="260.00" arrivalLane="junctionEast_0" arrivalPos="492.80" arrivalSpeed="13.78" duration="175.00" routeLength="994.90" waitingTime="4.00" waitingCount="1" stopTime="0.00" timeLoss="103.28" rerouteNo="0" devices="tripinfo_westEastTop.17 ssm_westEastTop.17" vType="carCustom" speedFactor="1.04" vaporized=""/>
    <tripinfo id="southNorth.17" depart="125.00" departLane="southJunction_1" departPos="5.10" departSpeed="2.83" departDelay="0.40" arrival="262.00" arrivalLane="junctionNorth_0" arrivalPos="492.80" arrivalSpeed="12.84" duration="137.00" routeLength="995.01" waitingTime="4.00" waitingCount="1" stopTime="0.00" timeLoss="65.24" rerouteNo="0" devices="tripinfo_southNorth.17 ssm_southNorth.17" vType="carCustom" speedFactor="0.96" vaporized=""/>