<?xml version="1.0" encoding="UTF-8"?>

<!-- generated on 2025-04-29 08:57:17 by Eclipse SUMO sumo Version 1.20.0
<configuration xmlns:xsi="http://www.w3.org/2001/XMLSchema-instance" xsi:noNamespaceSchemaLocation="http://sumo.dlr.de/xsd/sumoConfiguration.xsd">

    <input>
        <net-file value="nets/2lane_unprotected_right/2lane_unprotected_right.net.xml"/>
        <route-files value="nets/2lane_unprotected_right/2lane_unprotected_right.rou.xml"/>
    </input>

    <output>
        <tripinfo-output value="traces/transs50f0.5_s50_f1_random/0185_tripinfo.xml"/>
        <collision-output value="traces/transs50f0.5_s50_f1_random/0185_collisions.xml"/>
        <statistic-output value="traces/transs50f0.5_s50_f1_random/0185_statistics.xml"/>
    </output>

    <processing>
        <collision.action value="teleport"/>
        <collision.check-junctions value="true"/>
        <time-to-teleport value="-1"/>
        <waiting-time-memory value="1000"/>
        <max-depart-delay value="-1"/>
        <default.speeddev value="0.1"/>
    </processing>

    <report>
        <no-warnings value="true"/>
    </report>

    <ssm_device>
        <device.ssm.probability value="1.0"/>
        <device.ssm.measures value="BR"/>
        <device.ssm.file value="/Users/finn/Code/CausalKnowledgeTransfer-4-SafeRL/traces/transs50f0.5_s50_f1_random/0185_ssm.xml"/>
    </ssm_device>

    <traci_server>
        <remote-port value="64690"/>
    </traci_server>

    <random_number>
        <random value="true"/>
    </random_number>

</configuration>
-->

<tripinfos xmlns:xsi="http://www.w3.org/2001/XMLSchema-instance" xsi:noNamespaceSchemaLocation="http://sumo.dlr.de/xsd/tripinfo_file.xsd">
    <tripinfo id="southEast.1" depart="5.00" departLane="southJunction_0" departPos="5.10" departSpeed="7.51" departDelay="0.37" arrival="71.00" arrivalLane="junctionEast_0" arrivalPos="492.80" arrivalSpeed="6.88" duration="66.00" routeLength="989.53" waitingTime="0.00" waitingCount="0" stopTime="0.00" timeLoss="5.82" rerouteNo="0" devices="tripinfo_southEast.1 ssm_southEast.1" vType="carCustom" speedFactor="1.08" vaporized="teleport"/>
    <tripinfo id="southEast.0" depart="1.00" departLane="southJunction_0" departPos="5.10" departSpeed="8.33" departDelay="0.56" arrival="131.00" arrivalLane="junctionEast_0" arrivalPos="492.80" arrivalSpeed="7.64" duration="130.00" routeLength="989.53" waitingTime="0.00" waitingCount="0" stopTime="0.00" timeLoss="10.67" rerouteNo="0" devices="tripinfo_southEast.0 ssm_southEast.0" vType="carCustom" speedFactor="0.91" vaporized=""/>
    <tripinfo id="westEastBottom0.0" depart="5.00" departLane="westJunction_0" departPos="5.10" departSpeed="8.33" departDelay="0.35" arrival="136.00" arrivalLane="junctionEast_0" arrivalPos="492.80" arrivalSpeed="7.64" duration="131.00" routeLength="994.90" waitingTime="0.00" waitingCount="0" stopTime="0.00" timeLoss="10.68" rerouteNo="0" devices="tripinfo_westEastBottom0.0 ssm_westEastBottom0.0" vType="carCustom" speedFactor="0.94" vaporized=""/>
    <tripinfo id="southNorth.0" depart="2.00" departLane="southJunction_1" departPos="5.10" departSpeed="8.33" departDelay="0.98" arrival="138.00" arrivalLane="junctionNorth_0" arrivalPos="492.80" arrivalSpeed="7.62" duration="136.00" routeLength="995.01" waitingTime="3.00" waitingCount="1" stopTime="0.00" timeLoss="15.82" rerouteNo="0" devices="tripinfo_southNorth.0 ssm_southNorth.0" vType="carCustom" speedFactor="1.13" vaporized=""/>
    <tripinfo id="southEast.2" depart="8.00" departLane="southJunction_0" departPos="5.10" departSpeed="7.35" departDelay="0.55" arrival="139.00" arrivalLane="junctionEast_0" arrivalPos="492.80" arrivalSpeed="7.67" duration="131.00" routeLength="989.53" waitingTime="0.00" waitingCount="0" stopTime="0.00" timeLoss="11.27" rerouteNo="0" devices="tripinfo_southEast.2 ssm_southEast.2" vType="carCustom" speedFactor="1.08" vaporized=""/>
    <tripinfo id="southNorth.1" depart="5.00" departLane="southJunction_1" departPos="5.10" departSpeed="8.18" departDelay="1.42" arrival="141.00" arrivalLane="junctionNorth_0" arrivalPos="492.80" arrivalSpeed="7.27" duration="136.00" routeLength="995.01" waitingTime="0.00" waitingCount="0" stopTime="0.00" timeLoss="16.30" rerouteNo="0" devices="tripinfo_southNorth.1 ssm_southNorth.1" vType="carCustom" speedFactor="1.02" vaporized=""/>
    <tripinfo id="westEastBottom0.1" depart="8.00" departLane="westJunction_0" departPos="5.10" departSpeed="8.18" departDelay="1.64" arrival="145.00" arrivalLane="junctionEast_0" arrivalPos="492.80" arrivalSpeed="7.55" duration="137.00" routeLength="994.90" waitingTime="4.00" waitingCount="1" stopTime="0.00" timeLoss="16.91" rerouteNo="0" devices="tripinfo_westEastBottom0.1 ssm_westEastBottom0.1" vType="carCustom" speedFactor="0.90" vaporized=""/>
    <tripinfo id="westEastTop.0" depart="11.00" departLane="westJunction_1" departPos="5.10" departSpeed="8.33" departDelay="0.26" arrival="146.00" arrivalLane="junctionEast_1" arrivalPos="492.80" arrivalSpeed="7.81" duration="135.00" routeLength="994.90" waitingTime="1.00" waitingCount="1" stopTime="0.00" timeLoss="15.02" rerouteNo="0" devices="tripinfo_westEastTop.0 ssm_westEastTop.0" vType="carCustom" speedFactor="0.86" vaporized=""/>
    <tripinfo id="westEastBottom0.2" depart="11.00" departLane="westJunction_0" departPos="5.10" departSpeed="6.76" departDelay="2.24" arrival="148.00" arrivalLane="junctionEast_0" arrivalPos="492.80" arrivalSpeed="7.17" duration="137.00" routeLength="994.90" waitingTime="0.00" waitingCount="0" stopTime="0.00" timeLoss="17.26" rerouteNo="0" devices="tripinfo_westEastBottom0.2 ssm_westEastBottom0.2" vType="carCustom" speedFactor="1.13" vaporized=""/>
    <tripinfo id="southNorth.2" depart="8.00" departLane="southJunction_1" departPos="5.10" departSpeed="6.76" departDelay="3.32" arrival="150.00" arrivalLane="junctionNorth_0" arrivalPos="492.80" arrivalSpeed="8.09" duration="142.00" routeLength="995.01" waitingTime="5.00" waitingCount="1" stopTime="0.00" timeLoss="22.31" rerouteNo="0" devices="tripinfo_southNorth.2 ssm_southNorth.2" vType="carCustom" speedFactor="1.05" vaporized=""/>
    <tripinfo id="southEast.3" depart="22.00" departLane="southJunction_0" departPos="5.10" departSpeed="7.91" departDelay="0.64" arrival="152.00" arrivalLane="junctionEast_0" arrivalPos="492.80" arrivalSpeed="7.80" duration="130.00" routeLength="989.53" waitingTime="0.00" waitingCount="0" stopTime="0.00" timeLoss="10.84" rerouteNo="0" devices="tripinfo_southEast.3 ssm_southEast.3" vType="carCustom" speedFactor="1.15" vaporized=""/>
    <tripinfo id="southNorth.3" depart="11.00" departLane="southJunction_1" departPos="5.10" departSpeed="6.58" departDelay="3.53" arrival="154.00" arrivalLane="junctionNorth_0" arrivalPos="492.80" arrivalSpeed="8.10" duration="143.00" routeLength="995.01" waitingTime="3.00" waitingCount="1" stopTime="0.00" timeLoss="22.70" rerouteNo="0" devices="tripinfo_southNorth.3 ssm_southNorth.3" vType="carCustom" speedFactor="1.04" vaporized=""/>
    <tripinfo id="southEast.4" depart="26.00" departLane="southJunction_0" departPos="5.10" departSpeed="7.68" departDelay="0.83" arrival="156.00" arrivalLane="junctionEast_0" arrivalPos="492.80" arrivalSpeed="8.31" duration="130.00" routeLength="989.53" waitingTime="0.00" waitingCount="0" stopTime="0.00" timeLoss="10.39" rerouteNo="0" devices="tripinfo_southEast.4 ssm_southEast.4" vType="carCustom" speedFactor="0.97" vaporized=""/>
    <tripinfo id="westEastTop.1" depart="14.00" departLane="westJunction_1" departPos="5.10" departSpeed="8.18" departDelay="1.98" arrival="157.00" arrivalLane="junctionEast_1" arrivalPos="492.80" arrivalSpeed="7.94" duration="143.00" routeLength="994.90" waitingTime="8.00" waitingCount="1" stopTime="0.00" timeLoss="23.47" rerouteNo="0" devices="tripinfo_westEastTop.1 ssm_westEastTop.1" vType="carCustom" speedFactor="1.19" vaporized=""/>
    <tripinfo id="westEastBottom0.3" depart="31.00" departLane="westJunction_0" departPos="5.10" departSpeed="7.34" departDelay="0.05" arrival="161.00" arrivalLane="junctionEast_0" arrivalPos="492.80" arrivalSpeed="8.24" duration="130.00" routeLength="994.90" waitingTime="0.00" waitingCount="0" stopTime="0.00" timeLoss="10.51" rerouteNo="0" devices="tripinfo_westEastBottom0.3 ssm_westEastBottom0.3" vType="carCustom" speedFactor="0.96" vaporized=""/>
    <tripinfo id="westEastTop.2" depart="20.00" departLane="westJunction_1" departPos="5.10" departSpeed="7.72" departDelay="0.99" arrival="162.00" arrivalLane="junctionEast_0" arrivalPos="492.80" arrivalSpeed="7.73" duration="142.00" routeLength="994.90" waitingTime="5.00" waitingCount="1" stopTime="0.00" timeLoss="21.71" rerouteNo="0" devices="tripinfo_westEastTop.2 ssm_westEastTop.2" vType="carCustom" speedFactor="1.04" vaporized=""/>
    <tripinfo id="southNorth.4" depart="14.00" departLane="southJunction_1" departPos="5.10" departSpeed="6.42" departDelay="4.26" arrival="164.00" arrivalLane="junctionNorth_0" arrivalPos="492.80" arrivalSpeed="7.28" duration="150.00" routeLength="995.01" waitingTime="5.00" waitingCount="1" stopTime="0.00" timeLoss="29.81" rerouteNo="0" devices="tripinfo_southNorth.4 ssm_southNorth.4" vType="carCustom" speedFactor="1.01" vaporized=""/>
    <tripinfo id="westEastTop.3" depart="27.00" departLane="westJunction_1" departPos="5.10" departSpeed="8.33" departDelay="0.39" arrival="169.00" arrivalLane="junctionEast_0" arrivalPos="492.80" arrivalSpeed="7.99" duration="142.00" routeLength="994.90" waitingTime="2.00" waitingCount="2" stopTime="0.00" timeLoss="21.79" rerouteNo="0" devices="tripinfo_westEastTop.3 ssm_westEastTop.3" vType="carCustom" speedFactor="1.04" vaporized=""/>
    <tripinfo id="westEastTop.4" depart="29.00" departLane="westJunction_1" departPos="5.10" departSpeed="7.62" departDelay="1.45" arrival="172.00" arrivalLane="junctionEast_0" arrivalPos="492.80" arrivalSpeed="7.59" duration="143.00" routeLength="994.90" waitingTime="0.00" waitingCount="0" stopTime="0.00" timeLoss="23.57" rerouteNo="0" devices="tripinfo_westEastTop.4 ssm_westEastTop.4" vType="carCustom" speedFactor="1.02" vaporized=""/>
    <tripinfo id="southNorth.5" depart="18.00" departLane="southJunction_1" departPos="5.10" departSpeed="5.54" departDelay="0.63" arrival="173.00" arrivalLane="junctionNorth_0" arrivalPos="492.80" arrivalSpeed="7.78" duration="155.00" routeLength="995.01" waitingTime="8.00" waitingCount="2" stopTime="0.00" timeLoss="34.83" rerouteNo="0" devices="tripinfo_southNorth.5 ssm_southNorth.5" vType="carCustom" speedFactor="0.96" vaporized=""/>
    <tripinfo id="westEastTop.5" depart="32.00" departLane="westJunction_1" departPos="5.10" departSpeed="6.44" departDelay="3.53" arrival="178.00" arrivalLane="junctionEast_1" arrivalPos="492.80" arrivalSpeed="7.56" duration="146.00" routeLength="994.90" waitingTime="1.00" waitingCount="1" stopTime="0.00" timeLoss="26.35" rerouteNo="0" devices="tripinfo_westEastTop.5 ssm_westEastTop.5" vType="carCustom" speedFactor="0.98" vaporized=""/>
    <tripinfo id="westEastBottom0.4" depart="42.00" departLane="westJunction_0" departPos="5.10" departSpeed="7.31" departDelay="0.77" arrival="178.00" arrivalLane="junctionEast_0" arrivalPos="492.80" arrivalSpeed="8.22" duration="136.00" routeLength="994.90" waitingTime="3.00" waitingCount="1" stopTime="0.00" timeLoss="15.77" rerouteNo="0" devices="tripinfo_westEastBottom0.4 ssm_westEastBottom0.4" vType="carCustom" speedFactor="1.12" vaporized=""/>
    <tripinfo id="westEastTop.6" depart="35.00" departLane="westJunction_1" departPos="5.10" departSpeed="4.96" departDelay="6.30" arrival="182.00" arrivalLane="junctionEast_0" arrivalPos="492.80" arrivalSpeed="8.06" duration="147.00" routeLength="994.90" waitingTime="0.00" waitingCount="0" stopTime="0.00" timeLoss="27.04" rerouteNo="0" devices="tripinfo_westEastTop.6 ssm_westEastTop.6" vType="carCustom" speedFactor="1.04" vaporized=""/>
    <tripinfo id="westEastTop.7" depart="38.00" departLane="westJunction_1" departPos="5.10" departSpeed="5.25" departDelay="7.97" arrival="186.00" arrivalLane="junctionEast_0" arrivalPos="492.80" arrivalSpeed="7.37" duration="148.00" routeLength="994.90" waitingTime="0.00" waitingCount="0" stopTime="0.00" timeLoss="28.36" rerouteNo="0" devices="tripinfo_westEastTop.7 ssm_westEastTop.7" vType="carCustom" speedFactor="1.09" vaporized=""/>
    <tripinfo id="westEastTop.8" depart="41.00" departLane="westJunction_1" departPos="5.10" departSpeed="5.08" departDelay="8.61" arrival="190.00" arrivalLane="junctionEast_0" arrivalPos="492.80" arrivalSpeed="7.48" duration="149.00" routeLength="994.90" waitingTime="0.00" waitingCount="0" stopTime="0.00" timeLoss="28.83" rerouteNo="0" devices="tripinfo_westEastTop.8 ssm_westEastTop.8" vType="carCustom" speedFactor="0.91" vaporized=""/>
    <tripinfo id="southNorth.6" depart="53.00" departLane="southJunction_1" departPos="5.10" departSpeed="8.17" departDelay="0.61" arrival="190.00" arrivalLane="junctionNorth_0" arrivalPos="492.80" arrivalSpeed="8.29" duration="137.00" routeLength="995.01" waitingTime="4.00" waitingCount="1" stopTime="0.00" timeLoss="16.59" rerouteNo="0" devices="tripinfo_southNorth.6 ssm_southNorth.6" vType="carCustom" speedFactor="1.06" vaporized=""/>
    <tripinfo id="southNorth.7" depart="59.00" departLane="southJunction_1" departPos="5.10" departSpeed="7.77" departDelay="0.39" arrival="193.00" arrivalLane="junctionNorth_0" arrivalPos="492.80" arrivalSpeed="7.80" duration="134.00" routeLength="995.01" waitingTime="0.00" waitingCount="0" stopTime="0.00" timeLoss="14.07" rerouteNo="0" devices="tripinfo_southNorth.7 ssm_southNorth.7" vType="carCustom" speedFactor="0.94" vaporized=""/>
    <tripinfo id="westEastBottom0.5" depart="58.00" departLane="westJunction_0" departPos="5.10" departSpeed="7.40" departDelay="0.41" arrival="194.00" arrivalLane="junctionEast_0" arrivalPos="492.80" arrivalSpeed="7.57" duration="136.00" routeLength="994.90" waitingTime="4.00" waitingCount="1" stopTime="0.00" timeLoss="16.22" rerouteNo="0" devices="tripinfo_westEastBottom0.5 ssm_westEastBottom0.5" vType="carCustom" speedFactor="1.07" vaporized=""/>
    <tripinfo id="westEastTop.9" depart="44.00" departLane="westJunction_1" departPos="5.10" departSpeed="5.63" departDelay="8.46" arrival="195.00" arrivalLane="junctionEast_1" arrivalPos="492.80" arrivalSpeed="7.37" duration="151.00" routeLength="994.90" waitingTime="1.00" waitingCount="1" stopTime="0.00" timeLoss="31.05" rerouteNo="0" devices="tripinfo_westEastTop.9 ssm_westEastTop.9" vType="carCustom" speedFactor="0.88" vaporized=""/>
    <tripinfo id="westEastTop.10" depart="48.00" departLane="westJunction_1" departPos="5.10" departSpeed="5.29" departDelay="0.37" arrival="199.00" arrivalLane="junctionEast_1" arrivalPos="492.80" arrivalSpeed="8.09" duration="151.00" routeLength="994.90" waitingTime="0.00" waitingCount="0" stopTime="0.00" timeLoss="30.74" rerouteNo="0" devices="tripinfo_westEastTop.10 ssm_westEastTop.10" vType="carCustom" speedFactor="0.79" vaporized=""/>
    <tripinfo id="southEast.5" depart="64.00" departLane="southJunction_0" departPos="5.10" departSpeed="7.74" departDelay="0.34" arrival="199.00" arrivalLane="junctionEast_0" arrivalPos="492.80" arrivalSpeed="7.95" duration="135.00" routeLength="989.53" waitingTime="3.00" waitingCount="1" stopTime="0.00" timeLoss="15.20" rerouteNo="0" devices="tripinfo_southEast.5 ssm_southEast.5" vType="carCustom" speedFactor="1.02" vaporized=""/>
    <tripinfo id="westEastTop.11" depart="52.00" departLane="westJunction_1" departPos="5.10" departSpeed="5.39" departDelay="0.46" arrival="202.00" arrivalLane="junctionEast_1" arrivalPos="492.80" arrivalSpeed="8.21" duration="150.00" routeLength="994.90" waitingTime="0.00" waitingCount="0" stopTime="0.00" timeLoss="30.06" rerouteNo="0" devices="tripinfo_westEastTop.11 ssm_westEastTop.11" vType="carCustom" speedFactor="1.00" vaporized=""/>
    <tripinfo id="southEast.6" depart="67.00" departLane="southJunction_0" departPos="5.10" departSpeed="8.22" departDelay="0.21" arrival="203.00" arrivalLane="junctionEast_0" arrivalPos="492.80" arrivalSpeed="8.23" duration="136.00" routeLength="989.53" waitingTime="0.00" waitingCount="0" stopTime="0.00" timeLoss="16.40" rerouteNo="0" devices="tripinfo_southEast.6 ssm_southEast.6" vType="carCustom" speedFactor="1.11" vaporized=""/>
    <tripinfo id="southNorth.8" depart="76.00" departLane="southJunction_1" departPos="5.10" departSpeed="7.87" departDelay="0.29" arrival="205.00" arrivalLane="junctionNorth_0" arrivalPos="492.80" arrivalSpeed="7.95" duration="129.00" routeLength="995.01" waitingTime="0.00" waitingCount="0" stopTime="0.00" timeLoss="9.50" rerouteNo="0" devices="tripinfo_southNorth.8 ssm_southNorth.8" vType="carCustom" speedFactor="1.24" vaporized=""/>
    <tripinfo id="westEastTop.12" depart="55.00" departLane="westJunction_1" departPos="5.10" departSpeed="5.84" departDelay="1.70" arrival="209.00" arrivalLane="junctionEast_0" arrivalPos="492.80" arrivalSpeed="7.25" duration="154.00" routeLength="994.90" waitingTime="3.00" waitingCount="1" stopTime="0.00" timeLoss="34.27" rerouteNo="0" devices="tripinfo_westEastTop.12 ssm_westEastTop.12" vType="carCustom" speedFactor="0.87" vaporized=""/>
    <tripinfo id="westEastTop.13" depart="60.00" departLane="westJunction_1" departPos="5.10" departSpeed="5.80" departDelay="0.57" arrival="213.00" arrivalLane="junctionEast_0" arrivalPos="492.80" arrivalSpeed="8.16" duration="153.00" routeLength="994.90" waitingTime="0.00" waitingCount="0" stopTime="0.00" timeLoss="33.20" rerouteNo="0" devices="tripinfo_westEastTop.13 ssm_westEastTop.13" vType="carCustom" speedFactor="0.92" vaporized=""/>
    <tripinfo id="southNorth.9" depart="79.00" departLane="southJunction_1" departPos="5.10" departSpeed="8.00" departDelay="0.74" arrival="215.00" arrivalLane="junctionNorth_0" arrivalPos="492.80" arrivalSpeed="7.35" duration="136.00" routeLength="995.01" waitingTime="1.00" waitingCount="1" stopTime="0.00" timeLoss="15.90" rerouteNo="0" devices="tripinfo_southNorth.9 ssm_southNorth.9" vType="carCustom" speedFactor="0.99" vaporized=""/>
    <tripinfo id="southEast.7" depart="88.00" departLane="southJunction_0" departPos="5.10" departSpeed="7.32" departDelay="0.96" arrival="217.00" arrivalLane="junctionEast_0" arrivalPos="492.80" arrivalSpeed="7.41" duration="129.00" routeLength="989.53" waitingTime="0.00" waitingCount="0" stopTime="0.00" timeLoss="9.37" rerouteNo="0" devices="tripinfo_southEast.7 ssm_southEast.7" vType="carCustom" speedFactor="1.07" vaporized=""/>
    <tripinfo id="westEastTop.14" depart="69.00" departLane="westJunction_1" departPos="5.10" departSpeed="6.99" departDelay="0.98" arrival="220.00" arrivalLane="junctionEast_0" arrivalPos="492.80" arrivalSpeed="8.26" duration="151.00" routeLength="994.90" waitingTime="2.00" waitingCount="1" stopTime="0.00" timeLoss="31.31" rerouteNo="0" devices="tripinfo_westEastTop.14 ssm_westEastTop.14" vType="carCustom" speedFactor="1.02" vaporized=""/>
    <tripinfo id="southNorth.10" depart="85.00" departLane="southJunction_1" departPos="5.10" departSpeed="6.79" departDelay="0.68" arrival="224.00" arrivalLane="junctionNorth_0" arrivalPos="492.80" arrivalSpeed="8.02" duration="139.00" routeLength="995.01" waitingTime="5.00" waitingCount="1" stopTime="0.00" timeLoss="19.49" rerouteNo="0" devices="tripinfo_southNorth.10 ssm_southNorth.10" vType="carCustom" speedFactor="0.85" vaporized=""/>
    <tripinfo id="southNorth.11" depart="93.00" departLane="southJunction_1" departPos="5.10" departSpeed="7.67" departDelay="0.43" arrival="228.00" arrivalLane="junctionNorth_0" arrivalPos="492.80" arrivalSpeed="7.87" duration="135.00" routeLength="995.01" waitingTime="0.00" waitingCount="0" stopTime="0.00" timeLoss="15.46" rerouteNo="0" devices="tripinfo_southNorth.11 ssm_southNorth.11" vType="carCustom" speedFactor="1.06" vaporized=""/>
    <tripinfo id="westEastTop.15" depart="74.00" departLane="westJunction_1" departPos="5.10" departSpeed="7.42" departDelay="0.30" arrival="229.00" arrivalLane="junctionEast_0" arrivalPos="492.80" arrivalSpeed="7.07" duration="155.00" routeLength="994.90" waitingTime="6.00" waitingCount="2" stopTime="0.00" timeLoss="35.23" rerouteNo="0" devices="tripinfo_westEastTop.15 ssm_westEastTop.15" vType="carCustom" speedFactor="0.96" vaporized=""/>
    <tripinfo id="westEastTop.16" depart="93.00" departLane="westJunction_1" departPos="5.10" departSpeed="7.20" departDelay="0.47" arrival="233.00" arrivalLane="junctionEast_1" arrivalPos="492.80" arrivalSpeed="7.15" duration="140.00" routeLength="994.90" waitingTime="2.00" waitingCount="1" stopTime="0.00" timeLoss="20.14" rerouteNo="0" devices="tripinfo_westEastTop.16 ssm_westEastTop.16" vType="carCustom" speedFactor="0.75" vaporized=""/>
    <tripinfo id="southNorth.12" depart="97.00" departLane="southJunction_1" departPos="5.10" departSpeed="8.24" departDelay="0.06" arrival="234.00" arrivalLane="junctionNorth_0" arrivalPos="492.80" arrivalSpeed="7.28" duration="137.00" routeLength="995.01" waitingTime="2.00" waitingCount="1" stopTime="0.00" timeLoss="16.95" rerouteNo="0" devices="tripinfo_southNorth.12 ssm_southNorth.12" vType="carCustom" speedFactor="1.10" vaporized=""/>
    <tripinfo id="southEast.8" depart="103.00" departLane="southJunction_0" departPos="5.10" departSpeed="7.38" departDelay="0.46" arrival="234.00" arrivalLane="junctionEast_0" arrivalPos="492.80" arrivalSpeed="7.36" duration="131.00" routeLength="989.53" waitingTime="0.00" waitingCount="0" stopTime="0.00" timeLoss="11.34" rerouteNo="0" devices="tripinfo_southEast.8 ssm_southEast.8" vType="carCustom" speedFactor="0.96" vaporized=""/>
    <tripinfo id="westEastTop.17" depart="95.00" departLane="westJunction_1" departPos="5.10" departSpeed="7.78" departDelay="1.63" arrival="239.00" arrivalLane="junctionEast_0" arrivalPos="492.80" arrivalSpeed="7.97" duration="144.00" routeLength="994.90" waitingTime="1.00" waitingCount="1" stopTime="0.00" timeLoss="24.29" rerouteNo="0" devices="tripinfo_westEastTop.17 ssm_westEastTop.17" vType="carCustom" speedFactor="1.04" vaporized=""/>
    <tripinfo id="westEastTop.18" depart="98.00" departLane="westJunction_1" departPos="5.10" departSpeed="6.44" departDelay="1.73" arrival="243.00" arrivalLane="junctionEast_0" arrivalPos="492.80" arrivalSpeed="7.27" duration="145.00" routeLength="994.90" waitingTime="0.00" waitingCount="0" stopTime="0.00" timeLoss="25.28" rerouteNo="0" devices="tripinfo_westEastTop.18 ssm_westEastTop.18" vType="carCustom" speedFactor="1.04" vaporized=""/>
    <tripinfo id="southNorth.13" depart="100.00" departLane="southJunction_1" departPos="5.10" departSpeed="7.34" departDelay="1.27" arrival="243.00" arrivalLane="junctionNorth_0" arrivalPos="492.80" arrivalSpeed="8.18" duration="143.00" routeLength="995.01" waitingTime="5.00" waitingCount="1" stopTime="0.00" timeLoss="23.45" rerouteNo="0" devices="tripinfo_southNorth.13 ssm_southNorth.13" vType="carCustom" speedFactor="1.14" vaporized=""/>
    <tripinfo id="westEastTop.19" depart="101.00" departLane="westJunction_1" departPos="5.10" departSpeed="6.72" departDelay="0.35" arrival="248.00" arrivalLane="junctionEast_0" arrivalPos="492.80" arrivalSpeed="7.27" duration="147.00" routeLength="994.90" waitingTime="2.00" waitingCount="1" stopTime="0.00" timeLoss="27.27" rerouteNo="0" devices="tripinfo_westEastTop.19 ssm_westEastTop.19" vType="carCustom" speedFactor="0.99" vaporized=""/>
    <tripinfo id="westEastBottom0.6" depart="114.00" departLane="westJunction_0" departPos="5.10" departSpeed="7.13" departDelay="0.49" arrival="252.00" arrivalLane="junctionEast_0" arrivalPos="492.80" arrivalSpeed="7.17" duration="138.00" routeLength="994.90" waitingTime="2.00" waitingCount="1" stopTime="0.00" timeLoss="17.91" rerouteNo="0" devices="tripinfo_westEastBottom0.6 ssm_westEastBottom0.6" vType="carCustom" speedFactor="1.05" vaporized=""/>
    <tripinfo id="westEastTop.20" depart="104.00" departLane="westJunction_1" departPos="5.10" departSpeed="5.93" departDelay="0.99" arrival="253.00" arrivalLane="junctionEast_0" arrivalPos="492.80" arrivalSpeed="7.74" duration="149.00" routeLength="994.90" waitingTime="0.00" waitingCount="0" stopTime="0.00" timeLoss="29.02" rerouteNo="0" devices="tripinfo_westEastTop.20 ssm_westEastTop.20" vType="carCustom" speedFactor="1.16" vaporized=""/>
    <tripinfo id="southNorth.14" depart="120.00" departLane="southJunction_1" departPos="5.10" departSpeed="7.91" departDelay="0.21" arrival="254.00" arrivalLane="junctionNorth_0" arrivalPos="492.80" arrivalSpeed="8.32" duration="134.00" routeLength="995.01" waitingTime="1.00" waitingCount="1" stopTime="0.00" timeLoss="14.06" rerouteNo="0" devices="tripinfo_southNorth.14 ssm_southNorth.14" vType="carCustom" speedFactor="0.97" vaporized=""/>
    <tripinfo id="southEast.9" depart="121.00" departLane="southJunction_0" departPos="5.10" departSpeed="7.18" departDelay="0.80" arrival="255.00" arrivalLane="junctionEast_0" arrivalPos="492.80" arrivalSpeed="8.02" duration="134.00" routeLength="989.53" waitingTime="0.00" waitingCount="0" stopTime="0.00" timeLoss="15.12" rerouteNo="0" devices="tripinfo_southEast.9 ssm_southEast.9" vType="carCustom" speedFactor="1.20" vaporized=""/>
    <tripinfo id="southNorth.15" depart="125.00" departLane="southJunction_1" departPos="5.10" departSpeed="8.26" departDelay="0.59" arrival="258.00" arrivalLane="junctionNorth_0" arrivalPos="492.80" arrivalSpeed="8.15" duration="133.00" routeLength="995.01" waitingTime="0.00" waitingCount="0" stopTime="0.00" timeLoss="13.00" rerouteNo="0" devices="tripinfo_southNorth.15 ssm_southNorth.15" vType="carCustom" speedFactor="1.03" vaporized=""/>
    <tripinfo id="westEastTop.21" depart="107.00" departLane="westJunction_1" departPos="5.10" departSpeed="5.98" departDelay="3.02" arrival="259.00" arrivalLane="junctionEast_1" arrivalPos="492.80" arrivalSpeed="7.29" duration="152.00" routeLength="994.90" waitingTime="2.00" waitingCount="1" stopTime="0.00" timeLoss="32.27" rerouteNo="0" devices="tripinfo_westEastTop.21 ssm_westEastTop.21" vType="carCustom" speedFactor="0.94" vaporized=""/>
    <tripinfo id="westEastBottom0.7" depart="116.00" departLane="westJunction_0" departPos="5.10" departSpeed="7.42" departDelay="1.66" arrival="259.00" arrivalLane="junctionEast_0" arrivalPos="492.80" arrivalSpeed="7.45" duration="143.00" routeLength="994.90" waitingTime="5.00" waitingCount="1" stopTime="0.00" timeLoss="23.10" rerouteNo="0" devices="tripinfo_westEastBottom0.7 ssm_westEastBottom0.7" vType="carCustom" speedFactor="0.85" vaporized=""/>
    <tripinfo id="westEastTop.22" depart="110.00" departLane="westJunction_1" departPos="5.10" departSpeed="5.02" departDelay="0.00" arrival="263.00" arrivalLane="junctionEast_0" arrivalPos="492.80" arrivalSpeed="7.31" duration="153.00" routeLength="994.90" waitingTime="1.00" waitingCount="1" stopTime="0.00" timeLoss="33.08" rerouteNo="0" devices="tripinfo_westEastTop.22 ssm_westEastTop.22" vType="carCustom" speedFactor="0.90" vaporized=""/>
    <tripinfo id="southNorth.16" depart="129.00" departLane="southJunction_1" departPos="5.10" departSpeed="7.76" departDelay="0.29" arrival="264.00" arrivalLane="junctionNorth_0" arrivalPos="492.80" arrivalSpeed="8.00" duration="135.00" routeLength="995.01" waitingTime="2.00" waitingCount="1" stopTime="0.00" timeLoss="15.44" rerouteNo="0" devices="tripinfo_southNorth.16 ssm_southNorth.16" vType="carCustom" speedFactor="1.05" vaporized=""/>
    <tripinfo id="westEastTop.23" depart="125.00" departLane="westJunction_1" departPos="5.10" departSpeed="6.74" departDelay="0.98" arrival="270.00" arrivalLane="junctionEast_1" arrivalPos="492.80" arrivalSpeed="8.08" duration="145.00" routeLength="994.90" waitingTime="2.00" waitingCount="1" stopTime="0.00" timeLoss="24.94" rerouteNo="0" devices="tripinfo_westEastTop.23 ssm_westEastTop.23" vType="carCustom" speedFactor="1.19" vaporized=""/>
    <tripinfo id="southEast.10" depart="140.00" departLane="southJunction_0" departPos="5.10" departSpeed="7.39" departDelay="0.31" arrival="270.00" arrivalLane="junctionEast_0" arrivalPos="492.80" arrivalSpeed="8.04" duration="130.00" routeLength="989.53" waitingTime="0.00" waitingCount="0" stopTime="0.00" timeLoss="10.54" rerouteNo="0" devices="tripinfo_southEast.10 ssm_southEast.10" vType="carCustom" speedFactor="0.87" vaporized=""/>
    <tripinfo id="westEastTop.24" depart="132.00" departLane="westJunction_1" departPos="5.10" departSpeed="7.42" departDelay="0.34" arrival="274.00" arrivalLane="junctionEast_0" arrivalPos="492.80" arrivalSpeed="7.56" duration="142.00" routeLength="994.90" waitingTime="0.00" waitingCount="0" stopTime="0.00" timeLoss="21.96" rerouteNo="0" devices="tripinfo_westEastTop.24 ssm_westEastTop.24" vType="carCustom" speedFactor="0.80" vaporized=""/>
    <tripinfo id="southNorth.17" depart="139.00" departLane="southJunction_1" departPos="5.10" departSpeed="7.09" departDelay="0.27" arrival="274.00" arrivalLane="junctionNorth_0" arrivalPos="492.80" arrivalSpeed="8.16" duration="135.00" routeLength="995.01" waitingTime="3.00" waitingCount="1" stopTime="0.00" timeLoss="15.46" rerouteNo="0" devices="tripinfo_southNorth.17 ssm_southNorth.17" vType="carCustom" speedFactor="0.93" vaporized=""/>
    <tripinfo id="southEast.11" depart="147.00" departLane="southJunction_0" departPos="5.10" departSpeed="7.53" departDelay="0.94" arrival="278.00" arrivalLane="junctionEast_0" arrivalPos="492.80" arrivalSpeed="7.71" duration="131.00" routeLength="989.53" waitingTime="0.00" waitingCount="0" stopTime="0.00" timeLoss="11.23" rerouteNo="0" devices="tripinfo_southEast.11 ssm_southEast.11" vType="carCustom" speedFactor="1.15" vaporized=""/>