<?xml version="1.0" encoding="UTF-8"?>

<!-- generated on 2025-04-29 09:08:24 by Eclipse SUMO sumo Version 1.20.0
<configuration xmlns:xsi="http://www.w3.org/2001/XMLSchema-instance" xsi:noNamespaceSchemaLocation="http://sumo.dlr.de/xsd/sumoConfiguration.xsd">

    <input>
        <net-file value="nets/2lane_unprotected_right/2lane_unprotected_right.net.xml"/>
        <route-files value="nets/2lane_unprotected_right/2lane_unprotected_right.rou.xml"/>
    </input>

    <output>
        <tripinfo-output value="traces/transs50f0.5_s50_f1_random/0194_tripinfo.xml"/>
        <collision-output value="traces/transs50f0.5_s50_f1_random/0194_collisions.xml"/>
        <statistic-output value="traces/transs50f0.5_s50_f1_random/0194_statistics.xml"/>
    </output>

    <processing>
        <collision.action value="teleport"/>
        <collision.check-junctions value="true"/>
        <time-to-teleport value="-1"/>
        <waiting-time-memory value="1000"/>
        <max-depart-delay value="-1"/>
        <default.speeddev value="0.1"/>
    </processing>

    <report>
        <no-warnings value="true"/>
    </report>

    <ssm_device>
        <device.ssm.probability value="1.0"/>
        <device.ssm.measures value="BR"/>
        <device.ssm.file value="/Users/finn/Code/CausalKnowledgeTransfer-4-SafeRL/traces/transs50f0.5_s50_f1_random/0194_ssm.xml"/>
    </ssm_device>

    <traci_server>
        <remote-port value="64802"/>
    </traci_server>

    <random_number>
        <random value="true"/>
    </random_number>

</configuration>
-->

<tripinfos xmlns:xsi="http://www.w3.org/2001/XMLSchema-instance" xsi:noNamespaceSchemaLocation="http://sumo.dlr.de/xsd/tripinfo_file.xsd">
    <tripinfo id="westEastBottom0.0" depart="7.00" departLane="westJunction_0" departPos="5.10" departSpeed="8.33" departDelay="0.20" arrival="74.00" arrivalLane="junctionEast_0" arrivalPos="492.80" arrivalSpeed="4.39" duration="67.00" routeLength="994.90" waitingTime="0.00" waitingCount="0" stopTime="0.00" timeLoss="6.21" rerouteNo="0" devices="tripinfo_westEastBottom0.0 ssm_westEastBottom0.0" vType="carCustom" speedFactor="0.82" vaporized="teleport"/>
    <tripinfo id="southEast.7" depart="47.00" departLane="southJunction_0" departPos="5.10" departSpeed="5.56" departDelay="7.16" arrival="125.00" arrivalLane="junctionEast_0" arrivalPos="492.80" arrivalSpeed="5.34" duration="78.00" routeLength="989.53" waitingTime="0.00" waitingCount="0" stopTime="0.00" timeLoss="17.75" rerouteNo="0" devices="tripinfo_southEast.7 ssm_southEast.7" vType="carCustom" speedFactor="0.94" vaporized="teleport"/>
    <tripinfo id="southNorth.0" depart="5.00" departLane="southJunction_1" departPos="5.10" departSpeed="8.33" departDelay="0.45" arrival="135.00" arrivalLane="junctionNorth_0" arrivalPos="492.80" arrivalSpeed="7.53" duration="130.00" routeLength="995.01" waitingTime="0.00" waitingCount="0" stopTime="0.00" timeLoss="10.20" rerouteNo="0" devices="tripinfo_southNorth.0 ssm_southNorth.0" vType="carCustom" speedFactor="1.08" vaporized=""/>
    <tripinfo id="southEast.0" depart="6.00" departLane="southJunction_0" departPos="5.10" departSpeed="8.33" departDelay="0.09" arrival="138.00" arrivalLane="junctionEast_0" arrivalPos="492.80" arrivalSpeed="8.21" duration="132.00" routeLength="989.53" waitingTime="0.00" waitingCount="0" stopTime="0.00" timeLoss="11.71" rerouteNo="0" devices="tripinfo_southEast.0 ssm_southEast.0" vType="carCustom" speedFactor="0.79" vaporized=""/>
    <tripinfo id="westEastTop.0" depart="6.00" departLane="westJunction_1" departPos="5.10" departSpeed="8.33" departDelay="0.43" arrival="138.00" arrivalLane="junctionEast_1" arrivalPos="492.80" arrivalSpeed="7.42" duration="132.00" routeLength="994.90" waitingTime="0.00" waitingCount="0" stopTime="0.00" timeLoss="11.87" rerouteNo="0" devices="tripinfo_westEastTop.0 ssm_westEastTop.0" vType="carCustom" speedFactor="1.07" vaporized=""/>
    <tripinfo id="southEast.1" depart="10.00" departLane="southJunction_0" departPos="5.10" departSpeed="7.67" departDelay="0.56" arrival="142.00" arrivalLane="junctionEast_0" arrivalPos="492.80" arrivalSpeed="7.23" duration="132.00" routeLength="989.53" waitingTime="0.00" waitingCount="0" stopTime="0.00" timeLoss="12.12" rerouteNo="0" devices="tripinfo_southEast.1 ssm_southEast.1" vType="carCustom" speedFactor="1.01" vaporized=""/>
    <tripinfo id="southEast.2" depart="16.00" departLane="southJunction_0" departPos="5.10" departSpeed="7.41" departDelay="0.66" arrival="147.00" arrivalLane="junctionEast_0" arrivalPos="492.80" arrivalSpeed="7.97" duration="131.00" routeLength="989.53" waitingTime="0.00" waitingCount="0" stopTime="0.00" timeLoss="10.84" rerouteNo="0" devices="tripinfo_southEast.2 ssm_southEast.2" vType="carCustom" speedFactor="0.92" vaporized=""/>
    <tripinfo id="westEastTop.1" depart="14.00" departLane="westJunction_1" departPos="5.10" departSpeed="8.05" departDelay="0.83" arrival="149.00" arrivalLane="junctionEast_1" arrivalPos="492.80" arrivalSpeed="8.27" duration="135.00" routeLength="994.90" waitingTime="1.00" waitingCount="1" stopTime="0.00" timeLoss="14.89" rerouteNo="0" devices="tripinfo_westEastTop.1 ssm_westEastTop.1" vType="carCustom" speedFactor="1.00" vaporized=""/>
    <tripinfo id="westEastBottom0.5" depart="79.00" departLane="westJunction_0" departPos="5.10" departSpeed="7.45" departDelay="0.67" arrival="149.00" arrivalLane="junctionEast_0" arrivalPos="492.80" arrivalSpeed="6.14" duration="70.00" routeLength="994.90" waitingTime="1.00" waitingCount="1" stopTime="0.00" timeLoss="9.36" rerouteNo="0" devices="tripinfo_westEastBottom0.5 ssm_westEastBottom0.5" vType="carCustom" speedFactor="1.15" vaporized="teleport"/>
    <tripinfo id="westEastBottom0.1" depart="20.00" departLane="westJunction_0" departPos="5.10" departSpeed="7.69" departDelay="0.88" arrival="151.00" arrivalLane="junctionEast_0" arrivalPos="492.80" arrivalSpeed="8.19" duration="131.00" routeLength="994.90" waitingTime="0.00" waitingCount="0" stopTime="0.00" timeLoss="11.03" rerouteNo="0" devices="tripinfo_westEastBottom0.1 ssm_westEastBottom0.1" vType="carCustom" speedFactor="1.08" vaporized=""/>
    <tripinfo id="southNorth.1" depart="16.00" departLane="southJunction_1" departPos="5.10" departSpeed="7.67" departDelay="0.14" arrival="153.00" arrivalLane="junctionNorth_0" arrivalPos="492.80" arrivalSpeed="7.62" duration="137.00" routeLength="995.01" waitingTime="4.00" waitingCount="1" stopTime="0.00" timeLoss="17.47" rerouteNo="0" devices="tripinfo_southNorth.1 ssm_southNorth.1" vType="carCustom" speedFactor="1.02" vaporized=""/>
    <tripinfo id="southNorth.2" depart="24.00" departLane="southJunction_1" departPos="5.10" departSpeed="7.08" departDelay="0.98" arrival="158.00" arrivalLane="junctionNorth_0" arrivalPos="492.80" arrivalSpeed="7.38" duration="134.00" routeLength="995.01" waitingTime="0.00" waitingCount="0" stopTime="0.00" timeLoss="13.77" rerouteNo="0" devices="tripinfo_southNorth.2 ssm_southNorth.2" vType="carCustom" speedFactor="1.02" vaporized=""/>
    <tripinfo id="westEastTop.2" depart="17.00" departLane="westJunction_1" departPos="5.10" departSpeed="8.16" departDelay="0.46" arrival="159.00" arrivalLane="junctionEast_0" arrivalPos="492.80" arrivalSpeed="7.22" duration="142.00" routeLength="994.90" waitingTime="5.00" waitingCount="1" stopTime="0.00" timeLoss="22.09" rerouteNo="0" devices="tripinfo_westEastTop.2 ssm_westEastTop.2" vType="carCustom" speedFactor="0.87" vaporized=""/>
    <tripinfo id="westEastTop.3" depart="27.00" departLane="westJunction_1" departPos="5.10" departSpeed="8.02" departDelay="0.23" arrival="162.00" arrivalLane="junctionEast_1" arrivalPos="492.80" arrivalSpeed="7.98" duration="135.00" routeLength="994.90" waitingTime="0.00" waitingCount="0" stopTime="0.00" timeLoss="14.96" rerouteNo="0" devices="tripinfo_westEastTop.3 ssm_westEastTop.3" vType="carCustom" speedFactor="0.97" vaporized=""/>
    <tripinfo id="southEast.3" depart="29.00" departLane="southJunction_0" departPos="5.10" departSpeed="7.14" departDelay="0.93" arrival="163.00" arrivalLane="junctionEast_0" arrivalPos="492.80" arrivalSpeed="7.72" duration="134.00" routeLength="989.53" waitingTime="1.00" waitingCount="1" stopTime="0.00" timeLoss="14.63" rerouteNo="0" devices="tripinfo_southEast.3 ssm_southEast.3" vType="carCustom" speedFactor="1.03" vaporized=""/>
    <tripinfo id="southNorth.3" depart="29.00" departLane="southJunction_1" departPos="5.10" departSpeed="7.20" departDelay="0.59" arrival="163.00" arrivalLane="junctionNorth_0" arrivalPos="492.80" arrivalSpeed="7.21" duration="134.00" routeLength="995.01" waitingTime="0.00" waitingCount="0" stopTime="0.00" timeLoss="13.93" rerouteNo="0" devices="tripinfo_southNorth.3 ssm_southNorth.3" vType="carCustom" speedFactor="1.10" vaporized=""/>
    <tripinfo id="westEastTop.4" depart="31.00" departLane="westJunction_1" departPos="5.10" departSpeed="7.66" departDelay="0.89" arrival="168.00" arrivalLane="junctionEast_0" arrivalPos="492.80" arrivalSpeed="7.86" duration="137.00" routeLength="994.90" waitingTime="2.00" waitingCount="1" stopTime="0.00" timeLoss="16.80" rerouteNo="0" devices="tripinfo_westEastTop.4 ssm_westEastTop.4" vType="carCustom" speedFactor="0.98" vaporized=""/>
    <tripinfo id="westEastTop.5" depart="33.00" departLane="westJunction_1" departPos="5.10" departSpeed="7.72" departDelay="0.69" arrival="172.00" arrivalLane="junctionEast_0" arrivalPos="492.80" arrivalSpeed="8.05" duration="139.00" routeLength="994.90" waitingTime="0.00" waitingCount="0" stopTime="0.00" timeLoss="19.27" rerouteNo="0" devices="tripinfo_westEastTop.5 ssm_westEastTop.5" vType="carCustom" speedFactor="1.00" vaporized=""/>
    <tripinfo id="southEast.4" depart="39.00" departLane="southJunction_0" departPos="5.10" departSpeed="7.42" departDelay="0.27" arrival="174.00" arrivalLane="junctionEast_1" arrivalPos="492.80" arrivalSpeed="7.87" duration="135.00" routeLength="989.53" waitingTime="1.00" waitingCount="1" stopTime="0.00" timeLoss="15.51" rerouteNo="0" devices="tripinfo_southEast.4 ssm_southEast.4" vType="carCustom" speedFactor="1.14" vaporized=""/>
    <tripinfo id="southNorth.4" depart="39.00" departLane="southJunction_1" departPos="5.10" departSpeed="8.08" departDelay="0.83" arrival="174.00" arrivalLane="junctionNorth_0" arrivalPos="492.80" arrivalSpeed="7.07" duration="135.00" routeLength="995.01" waitingTime="1.00" waitingCount="1" stopTime="0.00" timeLoss="15.00" rerouteNo="0" devices="tripinfo_southNorth.4 ssm_southNorth.4" vType="carCustom" speedFactor="1.01" vaporized=""/>
    <tripinfo id="westEastTop.6" depart="36.00" departLane="westJunction_1" departPos="5.10" departSpeed="6.31" departDelay="1.85" arrival="178.00" arrivalLane="junctionEast_1" arrivalPos="492.80" arrivalSpeed="7.92" duration="142.00" routeLength="994.90" waitingTime="2.00" waitingCount="1" stopTime="0.00" timeLoss="22.23" rerouteNo="0" devices="tripinfo_westEastTop.6 ssm_westEastTop.6" vType="carCustom" speedFactor="1.04" vaporized=""/>
    <tripinfo id="westEastBottom0.2" depart="44.00" departLane="westJunction_0" departPos="5.10" departSpeed="7.89" departDelay="0.05" arrival="178.00" arrivalLane="junctionEast_0" arrivalPos="492.80" arrivalSpeed="7.88" duration="134.00" routeLength="994.90" waitingTime="1.00" waitingCount="1" stopTime="0.00" timeLoss="14.29" rerouteNo="0" devices="tripinfo_westEastBottom0.2 ssm_westEastBottom0.2" vType="carCustom" speedFactor="1.07" vaporized=""/>
    <tripinfo id="southEast.5" depart="41.00" departLane="southJunction_0" departPos="5.10" departSpeed="7.96" departDelay="2.23" arrival="182.00" arrivalLane="junctionEast_0" arrivalPos="492.80" arrivalSpeed="7.55" duration="141.00" routeLength="989.53" waitingTime="5.00" waitingCount="1" stopTime="0.00" timeLoss="21.91" rerouteNo="0" devices="tripinfo_southEast.5 ssm_southEast.5" vType="carCustom" speedFactor="1.04" vaporized=""/>
    <tripinfo id="westEastTop.7" depart="42.00" departLane="westJunction_1" departPos="5.10" departSpeed="6.59" departDelay="0.87" arrival="182.00" arrivalLane="junctionEast_1" arrivalPos="492.80" arrivalSpeed="7.22" duration="140.00" routeLength="994.90" waitingTime="0.00" waitingCount="0" stopTime="0.00" timeLoss="20.02" rerouteNo="0" devices="tripinfo_westEastTop.7 ssm_westEastTop.7" vType="carCustom" speedFactor="0.74" vaporized=""/>
    <tripinfo id="southNorth.5" depart="41.00" departLane="southJunction_1" departPos="5.10" departSpeed="8.17" departDelay="0.11" arrival="183.00" arrivalLane="junctionNorth_0" arrivalPos="492.80" arrivalSpeed="7.55" duration="142.00" routeLength="995.01" waitingTime="5.00" waitingCount="1" stopTime="0.00" timeLoss="21.93" rerouteNo="0" devices="tripinfo_southNorth.5 ssm_southNorth.5" vType="carCustom" speedFactor="1.04" vaporized=""/>
    <tripinfo id="southEast.6" depart="44.00" departLane="southJunction_0" departPos="5.10" departSpeed="6.17" departDelay="4.58" arrival="187.00" arrivalLane="junctionEast_0" arrivalPos="492.80" arrivalSpeed="7.66" duration="143.00" routeLength="989.53" waitingTime="3.00" waitingCount="1" stopTime="0.00" timeLoss="22.90" rerouteNo="0" devices="tripinfo_southEast.6 ssm_southEast.6" vType="carCustom" speedFactor="0.75" vaporized=""/>
    <tripinfo id="southNorth.6" depart="52.00" departLane="southJunction_1" departPos="5.10" departSpeed="7.56" departDelay="0.43" arrival="187.00" arrivalLane="junctionNorth_0" arrivalPos="492.80" arrivalSpeed="7.11" duration="135.00" routeLength="995.01" waitingTime="0.00" waitingCount="0" stopTime="0.00" timeLoss="15.14" rerouteNo="0" devices="tripinfo_southNorth.6 ssm_southNorth.6" vType="carCustom" speedFactor="1.12" vaporized=""/>
    <tripinfo id="westEastTop.8" depart="44.00" departLane="westJunction_1" departPos="5.10" departSpeed="7.13" departDelay="2.27" arrival="189.00" arrivalLane="junctionEast_1" arrivalPos="492.80" arrivalSpeed="7.98" duration="145.00" routeLength="994.90" waitingTime="2.00" waitingCount="1" stopTime="0.00" timeLoss="24.64" rerouteNo="0" devices="tripinfo_westEastTop.8 ssm_westEastTop.8" vType="carCustom" speedFactor="0.79" vaporized=""/>
    <tripinfo id="westEastBottom0.3" depart="47.00" departLane="westJunction_0" departPos="5.10" departSpeed="7.74" departDelay="1.85" arrival="191.00" arrivalLane="junctionEast_0" arrivalPos="492.80" arrivalSpeed="7.19" duration="144.00" routeLength="994.90" waitingTime="5.00" waitingCount="1" stopTime="0.00" timeLoss="24.51" rerouteNo="0" devices="tripinfo_westEastBottom0.3 ssm_westEastBottom0.3" vType="carCustom" speedFactor="0.98" vaporized=""/>
    <tripinfo id="westEastTop.9" depart="47.00" departLane="westJunction_1" departPos="5.10" departSpeed="6.15" departDelay="2.90" arrival="192.00" arrivalLane="junctionEast_1" arrivalPos="492.80" arrivalSpeed="7.65" duration="145.00" routeLength="994.90" waitingTime="0.00" waitingCount="0" stopTime="0.00" timeLoss="25.54" rerouteNo="0" devices="tripinfo_westEastTop.9 ssm_westEastTop.9" vType="carCustom" speedFactor="0.92" vaporized=""/>
    <tripinfo id="southNorth.7" depart="54.00" departLane="southJunction_1" departPos="5.10" departSpeed="7.44" departDelay="1.56" arrival="193.00" arrivalLane="junctionNorth_0" arrivalPos="492.80" arrivalSpeed="7.37" duration="139.00" routeLength="995.01" waitingTime="2.00" waitingCount="1" stopTime="0.00" timeLoss="19.49" rerouteNo="0" devices="tripinfo_southNorth.7 ssm_southNorth.7" vType="carCustom" speedFactor="0.98" vaporized=""/>
    <tripinfo id="southEast.14" depart="118.00" departLane="southJunction_0" departPos="5.10" departSpeed="7.32" departDelay="0.13" arrival="194.00" arrivalLane="junctionEast_0" arrivalPos="492.80" arrivalSpeed="5.27" duration="76.00" routeLength="989.53" waitingTime="8.00" waitingCount="1" stopTime="0.00" timeLoss="16.17" rerouteNo="0" devices="tripinfo_southEast.14 ssm_southEast.14" vType="carCustom" speedFactor="1.09" vaporized="teleport"/>
    <tripinfo id="southEast.8" depart="50.00" departLane="southJunction_0" departPos="5.10" departSpeed="5.10" departDelay="9.74" arrival="195.00" arrivalLane="junctionEast_0" arrivalPos="492.80" arrivalSpeed="8.12" duration="145.00" routeLength="989.53" waitingTime="0.00" waitingCount="0" stopTime="0.00" timeLoss="25.80" rerouteNo="0" devices="tripinfo_southEast.8 ssm_southEast.8" vType="carCustom" speedFactor="1.07" vaporized=""/>
    <tripinfo id="southNorth.8" depart="60.00" departLane="southJunction_1" departPos="5.10" departSpeed="6.89" departDelay="0.56" arrival="198.00" arrivalLane="junctionNorth_0" arrivalPos="492.80" arrivalSpeed="7.77" duration="138.00" routeLength="995.01" waitingTime="0.00" waitingCount="0" stopTime="0.00" timeLoss="17.77" rerouteNo="0" devices="tripinfo_southNorth.8 ssm_southNorth.8" vType="carCustom" speedFactor="1.03" vaporized=""/>
    <tripinfo id="westEastBottom0.14" depart="119.00" departLane="westJunction_0" departPos="5.10" departSpeed="6.51" departDelay="0.89" arrival="198.00" arrivalLane="junctionEast_0" arrivalPos="492.80" arrivalSpeed="5.72" duration="79.00" routeLength="994.90" waitingTime="0.00" waitingCount="0" stopTime="0.00" timeLoss="18.21" rerouteNo="0" devices="tripinfo_westEastBottom0.14 ssm_westEastBottom0.14" vType="carCustom" speedFactor="1.05" vaporized="teleport"/>
    <tripinfo id="westEastTop.10" depart="50.00" departLane="westJunction_1" departPos="5.10" departSpeed="5.48" departDelay="5.22" arrival="199.00" arrivalLane="junctionEast_1" arrivalPos="492.80" arrivalSpeed="7.39" duration="149.00" routeLength="994.90" waitingTime="1.00" waitingCount="1" stopTime="0.00" timeLoss="28.88" rerouteNo="0" devices="tripinfo_westEastTop.10 ssm_westEastTop.10" vType="carCustom" speedFactor="1.08" vaporized=""/>
    <tripinfo id="westEastBottom0.4" depart="56.00" departLane="westJunction_0" departPos="5.10" departSpeed="7.32" departDelay="0.38" arrival="199.00" arrivalLane="junctionEast_0" arrivalPos="492.80" arrivalSpeed="7.79" duration="143.00" routeLength="994.90" waitingTime="6.00" waitingCount="1" stopTime="0.00" timeLoss="23.09" rerouteNo="0" devices="tripinfo_westEastBottom0.4 ssm_westEastBottom0.4" vType="carCustom" speedFactor="0.96" vaporized=""/>
    <tripinfo id="westEastTop.11" depart="53.00" departLane="westJunction_1" departPos="5.10" departSpeed="4.31" departDelay="4.16" arrival="203.00" arrivalLane="junctionEast_1" arrivalPos="492.80" arrivalSpeed="8.26" duration="150.00" routeLength="994.90" waitingTime="0.00" waitingCount="0" stopTime="0.00" timeLoss="29.95" rerouteNo="0" devices="tripinfo_westEastTop.11 ssm_westEastTop.11" vType="carCustom" speedFactor="0.96" vaporized=""/>
    <tripinfo id="southEast.9" depart="54.00" departLane="southJunction_0" departPos="5.10" departSpeed="5.38" departDelay="2.03" arrival="203.00" arrivalLane="junctionEast_0" arrivalPos="492.80" arrivalSpeed="7.82" duration="149.00" routeLength="989.53" waitingTime="3.00" waitingCount="1" stopTime="0.00" timeLoss="29.59" rerouteNo="0" devices="tripinfo_southEast.9 ssm_southEast.9" vType="carCustom" speedFactor="0.91" vaporized=""/>
    <tripinfo id="westEastTop.12" depart="64.00" departLane="westJunction_1" departPos="5.10" departSpeed="6.49" departDelay="0.60" arrival="207.00" arrivalLane="junctionEast_1" arrivalPos="492.80" arrivalSpeed="8.06" duration="143.00" routeLength="994.90" waitingTime="0.00" waitingCount="0" stopTime="0.00" timeLoss="23.12" rerouteNo="0" devices="tripinfo_westEastTop.12 ssm_westEastTop.12" vType="carCustom" speedFactor="1.14" vaporized=""/>
    <tripinfo id="southEast.10" depart="69.00" departLane="southJunction_0" departPos="5.10" departSpeed="6.77" departDelay="0.77" arrival="207.00" arrivalLane="junctionEast_0" arrivalPos="492.80" arrivalSpeed="7.04" duration="138.00" routeLength="989.53" waitingTime="1.00" waitingCount="1" stopTime="0.00" timeLoss="18.51" rerouteNo="0" devices="tripinfo_southEast.10 ssm_southEast.10" vType="carCustom" speedFactor="0.87" vaporized=""/>
    <tripinfo id="southEast.11" depart="71.00" departLane="southJunction_0" departPos="5.10" departSpeed="7.36" departDelay="2.48" arrival="211.00" arrivalLane="junctionEast_0" arrivalPos="492.80" arrivalSpeed="7.03" duration="140.00" routeLength="989.53" waitingTime="0.00" waitingCount="0" stopTime="0.00" timeLoss="20.60" rerouteNo="0" devices="tripinfo_southEast.11 ssm_southEast.11" vType="carCustom" speedFactor="0.90" vaporized=""/>
    <tripinfo id="westEastBottom0.17" depart="132.00" departLane="westJunction_0" departPos="5.10" departSpeed="6.93" departDelay="0.02" arrival="212.00" arrivalLane="junctionEast_0" arrivalPos="492.80" arrivalSpeed="5.06" duration="80.00" routeLength="994.90" waitingTime="0.00" waitingCount="0" stopTime="0.00" timeLoss="19.62" rerouteNo="0" devices="tripinfo_westEastBottom0.17 ssm_westEastBottom0.17" vType="carCustom" speedFactor="1.01" vaporized="teleport"/>
    <tripinfo id="westEastTop.13" depart="67.00" departLane="westJunction_1" departPos="5.10" departSpeed="7.32" departDelay="2.90" arrival="215.00" arrivalLane="junctionEast_0" arrivalPos="492.80" arrivalSpeed="7.11" duration="148.00" routeLength="994.90" waitingTime="3.00" waitingCount="1" stopTime="0.00" timeLoss="28.47" rerouteNo="0" devices="tripinfo_westEastTop.13 ssm_westEastTop.13" vType="carCustom" speedFactor="1.19" vaporized=""/>
    <tripinfo id="southEast.12" depart="74.00" departLane="southJunction_0" departPos="5.10" departSpeed="5.77" departDelay="3.75" arrival="216.00" arrivalLane="junctionEast_1" arrivalPos="492.80" arrivalSpeed="7.50" duration="142.00" routeLength="989.53" waitingTime="0.00" waitingCount="0" stopTime="0.00" timeLoss="22.12" rerouteNo="0" devices="tripinfo_southEast.12 ssm_southEast.12" vType="carCustom" speedFactor="0.99" vaporized=""/>
    <tripinfo id="westEastTop.14" depart="70.00" departLane="westJunction_1" departPos="5.10" departSpeed="6.08" departDelay="5.34" arrival="219.00" arrivalLane="junctionEast_0" arrivalPos="492.80" arrivalSpeed="8.05" duration="149.00" routeLength="994.90" waitingTime="0.00" waitingCount="0" stopTime="0.00" timeLoss="29.23" rerouteNo="0" devices="tripinfo_westEastTop.14 ssm_westEastTop.14" vType="carCustom" speedFactor="0.86" vaporized=""/>
    <tripinfo id="southEast.13" depart="77.00" departLane="southJunction_0" departPos="5.10" departSpeed="5.99" departDelay="2.03" arrival="220.00" arrivalLane="junctionEast_1" arrivalPos="492.80" arrivalSpeed="8.18" duration="143.00" routeLength="989.53" waitingTime="0.00" waitingCount="0" stopTime="0.00" timeLoss="22.74" rerouteNo="0" devices="tripinfo_southEast.13 ssm_southEast.13" vType="carCustom" speedFactor="0.86" vaporized=""/>
    <tripinfo id="southNorth.9" depart="90.00" departLane="southJunction_1" departPos="5.10" departSpeed="8.15" departDelay="0.88" arrival="220.00" arrivalLane="junctionNorth_0" arrivalPos="492.80" arrivalSpeed="7.93" duration="130.00" routeLength="995.01" waitingTime="0.00" waitingCount="0" stopTime="0.00" timeLoss="10.51" rerouteNo="0" devices="tripinfo_southNorth.9 ssm_southNorth.9" vType="carCustom" speedFactor="0.89" vaporized=""/>
    <tripinfo id="westEastTop.15" depart="73.00" departLane="westJunction_1" departPos="5.10" departSpeed="6.25" departDelay="1.19" arrival="223.00" arrivalLane="junctionEast_1" arrivalPos="492.80" arrivalSpeed="7.68" duration="150.00" routeLength="994.90" waitingTime="2.00" waitingCount="1" stopTime="0.00" timeLoss="30.49" rerouteNo="0" devices="tripinfo_westEastTop.15 ssm_westEastTop.15" vType="carCustom" speedFactor="0.96" vaporized=""/>
    <tripinfo id="westEastBottom0.6" depart="81.00" departLane="westJunction_0" departPos="5.10" departSpeed="7.75" departDelay="2.40" arrival="223.00" arrivalLane="junctionEast_0" arrivalPos="492.80" arrivalSpeed="7.22" duration="142.00" routeLength="994.90" waitingTime="5.00" waitingCount="1" stopTime="0.00" timeLoss="22.39" rerouteNo="0" devices="tripinfo_westEastBottom0.6 ssm_westEastBottom0.6" vType="carCustom" speedFactor="0.85" vaporized=""/>
    <tripinfo id="westEastTop.16" depart="77.00" departLane="westJunction_1" departPos="5.10" departSpeed="5.42" departDelay="0.20" arrival="228.00" arrivalLane="junctionEast_1" arrivalPos="492.80" arrivalSpeed="7.35" duration="151.00" routeLength="994.90" waitingTime="0.00" waitingCount="0" stopTime="0.00" timeLoss="30.72" rerouteNo="0" devices="tripinfo_westEastTop.16 ssm_westEastTop.16" vType="carCustom" speedFactor="1.03" vaporized=""/>
    <tripinfo id="westEastBottom0.7" depart="84.00" departLane="westJunction_0" departPos="5.10" departSpeed="5.73" departDelay="4.48" arrival="228.00" arrivalLane="junctionEast_0" arrivalPos="492.80" arrivalSpeed="7.76" duration="144.00" routeLength="994.90" waitingTime="1.00" waitingCount="1" stopTime="0.00" timeLoss="23.77" rerouteNo="0" devices="tripinfo_westEastBottom0.7 ssm_westEastBottom0.7" vType="carCustom" speedFactor="1.00" vaporized=""/>
    <tripinfo id="westEastTop.17" depart="80.00" departLane="westJunction_1" departPos="5.10" departSpeed="5.40" departDelay="2.50" arrival="231.00" arrivalLane="junctionEast_1" arrivalPos="492.80" arrivalSpeed="7.16" duration="151.00" routeLength="994.90" waitingTime="0.00" waitingCount="0" stopTime="0.00" timeLoss="31.50" rerouteNo="0" devices="tripinfo_westEastTop.17 ssm_westEastTop.17" vType="carCustom" speedFactor="0.99" vaporized=""/>
    <tripinfo id="westEastBottom0.8" depart="87.00" departLane="westJunction_0" departPos="5.10" departSpeed="5.17" departDelay="2.66" arrival="232.00" arrivalLane="junctionEast_0" arrivalPos="492.80" arrivalSpeed="7.29" duration="145.00" routeLength="994.90" waitingTime="0.00" waitingCount="0" stopTime="0.00" timeLoss="25.08" rerouteNo="0" devices="tripinfo_westEastBottom0.8 ssm_westEastBottom0.8" vType="carCustom" speedFactor="1.07" vaporized=""/>
    <tripinfo id="southNorth.10" depart="100.00" departLane="southJunction_1" departPos="5.10" departSpeed="7.82" departDelay="0.06" arrival="233.00" arrivalLane="junctionNorth_0" arrivalPos="492.80" arrivalSpeed="7.70" duration="133.00" routeLength="995.01" waitingTime="0.00" waitingCount="0" stopTime="0.00" timeLoss="12.98" rerouteNo="0" devices="tripinfo_southNorth.10 ssm_southNorth.10" vType="carCustom" speedFactor="0.74" vaporized=""/>
    <tripinfo id="westEastTop.18" depart="83.00" departLane="westJunction_1" departPos="5.10" departSpeed="5.00" departDelay="5.23" arrival="238.00" arrivalLane="junctionEast_1" arrivalPos="492.80" arrivalSpeed="7.88" duration="155.00" routeLength="994.90" waitingTime="3.00" waitingCount="1" stopTime="0.00" timeLoss="34.89" rerouteNo="0" devices="tripinfo_westEastTop.18 ssm_westEastTop.18" vType="carCustom" speedFactor="0.89" vaporized=""/>
    <tripinfo id="westEastBottom0.9" depart="90.00" departLane="westJunction_0" departPos="5.10" departSpeed="4.41" departDelay="5.15" arrival="238.00" arrivalLane="junctionEast_0" arrivalPos="492.80" arrivalSpeed="7.38" duration="148.00" routeLength="994.90" waitingTime="3.00" waitingCount="1" stopTime="0.00" timeLoss="28.37" rerouteNo="0" devices="tripinfo_westEastBottom0.9 ssm_westEastBottom0.9" vType="carCustom" speedFactor="1.20" vaporized=""/>
    <tripinfo id="westEastTop.19" depart="86.00" departLane="westJunction_1" departPos="5.10" departSpeed="4.47" departDelay="7.94" arrival="243.00" arrivalLane="junctionEast_0" arrivalPos="492.80" arrivalSpeed="8.28" duration="157.00" routeLength="994.90" waitingTime="1.00" waitingCount="1" stopTime="0.00" timeLoss="36.71" rerouteNo="0" devices="tripinfo_westEastTop.19 ssm_westEastTop.19" vType="carCustom" speedFactor="1.03" vaporized=""/>
    <tripinfo id="southNorth.11" depart="109.00" departLane="southJunction_1" departPos="5.10" departSpeed="7.91" departDelay="0.86" arrival="244.00" arrivalLane="junctionNorth_0" arrivalPos="492.80" arrivalSpeed="7.16" duration="135.00" routeLength="995.01" waitingTime="1.00" waitingCount="1" stopTime="0.00" timeLoss="14.78" rerouteNo="0" devices="tripinfo_southNorth.11 ssm_southNorth.11" vType="carCustom" speedFactor="1.02" vaporized=""/>
    <tripinfo id="westEastTop.20" depart="90.00" departLane="westJunction_1" departPos="5.10" departSpeed="4.87" departDelay="10.92" arrival="248.00" arrivalLane="junctionEast_1" arrivalPos="492.80" arrivalSpeed="8.04" duration="158.00" routeLength="994.90" waitingTime="2.00" waitingCount="1" stopTime="0.00" timeLoss="38.56" rerouteNo="0" devices="tripinfo_westEastTop.20 ssm_westEastTop.20" vType="carCustom" speedFactor="1.18" vaporized=""/>
    <tripinfo id="westEastBottom0.10" depart="95.00" departLane="westJunction_0" departPos="5.10" departSpeed="5.42" departDelay="0.86" arrival="248.00" arrivalLane="junctionEast_0" arrivalPos="492.80" arrivalSpeed="8.22" duration="153.00" routeLength="994.90" waitingTime="5.00" waitingCount="1" stopTime="0.00" timeLoss="33.12" rerouteNo="0" devices="tripinfo_westEastBottom0.10 ssm_westEastBottom0.10" vType="carCustom" speedFactor="1.08" vaporized=""/>
    <tripinfo id="westEastBottom0.11" depart="98.00" departLane="westJunction_0" departPos="5.10" departSpeed="5.13" departDelay="2.27" arrival="252.00" arrivalLane="junctionEast_0" arrivalPos="492.80" arrivalSpeed="8.30" duration="154.00" routeLength="994.90" waitingTime="3.00" waitingCount="1" stopTime="0.00" timeLoss="34.28" rerouteNo="0" devices="tripinfo_westEastBottom0.11 ssm_westEastBottom0.11" vType="carCustom" speedFactor="0.89" vaporized=""/>
    <tripinfo id="westEastTop.21" depart="93.00" departLane="westJunction_1" departPos="5.10" departSpeed="4.76" departDelay="7.19" arrival="253.00" arrivalLane="junctionEast_1" arrivalPos="492.80" arrivalSpeed="8.26" duration="160.00" routeLength="994.90" waitingTime="0.00" waitingCount="0" stopTime="0.00" timeLoss="39.85" rerouteNo="0" devices="tripinfo_westEastTop.21 ssm_westEastTop.21" vType="carCustom" speedFactor="0.98" vaporized=""/>