<?xml version="1.0" encoding="UTF-8"?>

<!-- generated on 2025-04-29 09:20:21 by Eclipse SUMO sumo Version 1.20.0
<configuration xmlns:xsi="http://www.w3.org/2001/XMLSchema-instance" xsi:noNamespaceSchemaLocation="http://sumo.dlr.de/xsd/sumoConfiguration.xsd">

    <input>
        <net-file value="nets/2lane_unprotected_right/2lane_unprotected_right.net.xml"/>
        <route-files value="nets/2lane_unprotected_right/2lane_unprotected_right.rou.xml"/>
    </input>

    <output>
        <tripinfo-output value="traces/transs50f0.5_s50_f1_random/0205_tripinfo.xml"/>
        <collision-output value="traces/transs50f0.5_s50_f1_random/0205_collisions.xml"/>
        <statistic-output value="traces/transs50f0.5_s50_f1_random/0205_statistics.xml"/>
    </output>

    <processing>
        <collision.action value="teleport"/>
        <collision.check-junctions value="true"/>
        <time-to-teleport value="-1"/>
        <waiting-time-memory value="1000"/>
        <max-depart-delay value="-1"/>
        <default.speeddev value="0.1"/>
    </processing>

    <report>
        <no-warnings value="true"/>
    </report>

    <ssm_device>
        <device.ssm.probability value="1.0"/>
        <device.ssm.measures value="BR"/>
        <device.ssm.file value="/Users/finn/Code/CausalKnowledgeTransfer-4-SafeRL/traces/transs50f0.5_s50_f1_random/0205_ssm.xml"/>
    </ssm_device>

    <traci_server>
        <remote-port value="64939"/>
    </traci_server>

    <random_number>
        <random value="true"/>
    </random_number>

</configuration>
-->

<tripinfos xmlns:xsi="http://www.w3.org/2001/XMLSchema-instance" xsi:noNamespaceSchemaLocation="http://sumo.dlr.de/xsd/tripinfo_file.xsd">
    <tripinfo id="southEast.0" depart="3.00" departLane="southJunction_0" departPos="5.10" departSpeed="8.33" departDelay="0.42" arrival="133.00" arrivalLane="junctionEast_0" arrivalPos="492.80" arrivalSpeed="8.30" duration="130.00" routeLength="989.53" waitingTime="0.00" waitingCount="0" stopTime="0.00" timeLoss="10.46" rerouteNo="0" devices="tripinfo_southEast.0 ssm_southEast.0" vType="carCustom" speedFactor="1.05" vaporized=""/>
    <tripinfo id="westEastBottom0.0" depart="3.00" departLane="westJunction_0" departPos="5.10" departSpeed="8.33" departDelay="0.35" arrival="134.00" arrivalLane="junctionEast_1" arrivalPos="492.80" arrivalSpeed="8.04" duration="131.00" routeLength="994.90" waitingTime="0.00" waitingCount="0" stopTime="0.00" timeLoss="11.21" rerouteNo="0" devices="tripinfo_westEastBottom0.0 ssm_westEastBottom0.0" vType="carCustom" speedFactor="0.85" vaporized=""/>
    <tripinfo id="westEastBottom0.1" depart="6.00" departLane="westJunction_0" departPos="5.10" departSpeed="7.42" departDelay="2.28" arrival="136.00" arrivalLane="junctionEast_0" arrivalPos="492.80" arrivalSpeed="7.43" duration="130.00" routeLength="994.90" waitingTime="0.00" waitingCount="0" stopTime="0.00" timeLoss="10.48" rerouteNo="0" devices="tripinfo_westEastBottom0.1 ssm_westEastBottom0.1" vType="carCustom" speedFactor="0.88" vaporized=""/>
    <tripinfo id="westEastTop.0" depart="2.00" departLane="westJunction_1" departPos="5.10" departSpeed="8.33" departDelay="0.22" arrival="137.00" arrivalLane="junctionEast_1" arrivalPos="492.80" arrivalSpeed="7.34" duration="135.00" routeLength="994.90" waitingTime="1.00" waitingCount="1" stopTime="0.00" timeLoss="14.84" rerouteNo="0" devices="tripinfo_westEastTop.0 ssm_westEastTop.0" vType="carCustom" speedFactor="1.10" vaporized=""/>
    <tripinfo id="southNorth.0" depart="4.00" departLane="southJunction_1" departPos="5.10" departSpeed="8.33" departDelay="0.42" arrival="140.00" arrivalLane="junctionNorth_0" arrivalPos="492.80" arrivalSpeed="7.95" duration="136.00" routeLength="995.01" waitingTime="3.00" waitingCount="1" stopTime="0.00" timeLoss="16.02" rerouteNo="0" devices="tripinfo_southNorth.0 ssm_southNorth.0" vType="carCustom" speedFactor="1.11" vaporized=""/>
    <tripinfo id="southEast.1" depart="10.00" departLane="southJunction_0" departPos="5.10" departSpeed="7.07" departDelay="0.72" arrival="140.00" arrivalLane="junctionEast_0" arrivalPos="492.80" arrivalSpeed="7.76" duration="130.00" routeLength="989.53" waitingTime="0.00" waitingCount="0" stopTime="0.00" timeLoss="10.08" rerouteNo="0" devices="tripinfo_southEast.1 ssm_southEast.1" vType="carCustom" speedFactor="0.99" vaporized=""/>
    <tripinfo id="westEastBottom0.2" depart="12.00" departLane="westJunction_0" departPos="5.10" departSpeed="8.11" departDelay="0.84" arrival="145.00" arrivalLane="junctionEast_0" arrivalPos="492.80" arrivalSpeed="8.10" duration="133.00" routeLength="994.90" waitingTime="0.00" waitingCount="0" stopTime="0.00" timeLoss="13.22" rerouteNo="0" devices="tripinfo_westEastBottom0.2 ssm_westEastBottom0.2" vType="carCustom" speedFactor="0.96" vaporized=""/>
    <tripinfo id="westEastTop.1" depart="5.00" departLane="westJunction_1" departPos="5.10" departSpeed="7.42" departDelay="3.04" arrival="146.00" arrivalLane="junctionEast_1" arrivalPos="492.80" arrivalSpeed="7.81" duration="141.00" routeLength="994.90" waitingTime="3.00" waitingCount="1" stopTime="0.00" timeLoss="20.96" rerouteNo="0" devices="tripinfo_westEastTop.1 ssm_westEastTop.1" vType="carCustom" speedFactor="1.08" vaporized=""/>
    <tripinfo id="westEastTop.2" depart="7.00" departLane="westJunction_1" departPos="5.10" departSpeed="7.07" departDelay="4.89" arrival="148.00" arrivalLane="junctionEast_0" arrivalPos="492.80" arrivalSpeed="7.05" duration="141.00" routeLength="994.90" waitingTime="3.00" waitingCount="1" stopTime="0.00" timeLoss="21.40" rerouteNo="0" devices="tripinfo_westEastTop.2 ssm_westEastTop.2" vType="carCustom" speedFactor="0.98" vaporized=""/>
    <tripinfo id="westEastTop.3" depart="10.00" departLane="westJunction_1" departPos="5.10" departSpeed="7.82" departDelay="3.50" arrival="150.00" arrivalLane="junctionEast_1" arrivalPos="492.80" arrivalSpeed="7.40" duration="140.00" routeLength="994.90" waitingTime="2.00" waitingCount="1" stopTime="0.00" timeLoss="20.34" rerouteNo="0" devices="tripinfo_westEastTop.3 ssm_westEastTop.3" vType="carCustom" speedFactor="1.12" vaporized=""/>
    <tripinfo id="westEastBottom0.3" depart="21.00" departLane="westJunction_0" departPos="5.10" departSpeed="8.08" departDelay="0.55" arrival="152.00" arrivalLane="junctionEast_0" arrivalPos="492.80" arrivalSpeed="7.60" duration="131.00" routeLength="994.90" waitingTime="0.00" waitingCount="0" stopTime="0.00" timeLoss="10.72" rerouteNo="0" devices="tripinfo_westEastBottom0.3 ssm_westEastBottom0.3" vType="carCustom" speedFactor="1.06" vaporized=""/>
    <tripinfo id="westEastTop.4" depart="12.00" departLane="westJunction_1" departPos="5.10" departSpeed="7.63" departDelay="3.30" arrival="153.00" arrivalLane="junctionEast_1" arrivalPos="492.80" arrivalSpeed="7.51" duration="141.00" routeLength="994.90" waitingTime="1.00" waitingCount="1" stopTime="0.00" timeLoss="20.92" rerouteNo="0" devices="tripinfo_westEastTop.4 ssm_westEastTop.4" vType="carCustom" speedFactor="0.88" vaporized=""/>
    <tripinfo id="southNorth.1" depart="19.00" departLane="southJunction_1" departPos="5.10" departSpeed="8.11" departDelay="0.24" arrival="155.00" arrivalLane="junctionNorth_0" arrivalPos="492.80" arrivalSpeed="7.43" duration="136.00" routeLength="995.01" waitingTime="4.00" waitingCount="1" stopTime="0.00" timeLoss="16.52" rerouteNo="0" devices="tripinfo_southNorth.1 ssm_southNorth.1" vType="carCustom" speedFactor="0.95" vaporized=""/>
    <tripinfo id="southEast.2" depart="27.00" departLane="southJunction_0" departPos="5.10" departSpeed="7.38" departDelay="0.17" arrival="157.00" arrivalLane="junctionEast_0" arrivalPos="492.80" arrivalSpeed="7.81" duration="130.00" routeLength="989.53" waitingTime="0.00" waitingCount="0" stopTime="0.00" timeLoss="10.32" rerouteNo="0" devices="tripinfo_southEast.2 ssm_southEast.2" vType="carCustom" speedFactor="0.93" vaporized=""/>
    <tripinfo id="westEastTop.5" depart="15.00" departLane="westJunction_1" departPos="5.10" departSpeed="8.29" departDelay="0.69" arrival="160.00" arrivalLane="junctionEast_1" arrivalPos="492.80" arrivalSpeed="7.98" duration="145.00" routeLength="994.90" waitingTime="2.00" waitingCount="2" stopTime="0.00" timeLoss="24.80" rerouteNo="0" devices="tripinfo_westEastTop.5 ssm_westEastTop.5" vType="carCustom" speedFactor="0.84" vaporized=""/>
    <tripinfo id="southEast.3" depart="31.00" departLane="southJunction_0" departPos="5.10" departSpeed="7.08" departDelay="0.70" arrival="161.00" arrivalLane="junctionEast_0" arrivalPos="492.80" arrivalSpeed="7.49" duration="130.00" routeLength="989.53" waitingTime="0.00" waitingCount="0" stopTime="0.00" timeLoss="10.26" rerouteNo="0" devices="tripinfo_southEast.3 ssm_southEast.3" vType="carCustom" speedFactor="1.06" vaporized=""/>
    <tripinfo id="westEastTop.6" depart="17.00" departLane="westJunction_1" departPos="5.10" departSpeed="8.17" departDelay="2.23" arrival="162.00" arrivalLane="junctionEast_1" arrivalPos="492.80" arrivalSpeed="8.01" duration="145.00" routeLength="994.90" waitingTime="2.00" waitingCount="2" stopTime="0.00" timeLoss="24.97" rerouteNo="0" devices="tripinfo_westEastTop.6 ssm_westEastTop.6" vType="carCustom" speedFactor="1.05" vaporized=""/>
    <tripinfo id="southEast.4" depart="34.00" departLane="southJunction_0" departPos="5.10" departSpeed="8.00" departDelay="2.15" arrival="165.00" arrivalLane="junctionEast_0" arrivalPos="492.80" arrivalSpeed="7.13" duration="131.00" routeLength="989.53" waitingTime="0.00" waitingCount="0" stopTime="0.00" timeLoss="11.50" rerouteNo="0" devices="tripinfo_southEast.4 ssm_southEast.4" vType="carCustom" speedFactor="0.95" vaporized=""/>
    <tripinfo id="westEastTop.7" depart="26.00" departLane="westJunction_1" departPos="5.10" departSpeed="7.10" departDelay="0.92" arrival="170.00" arrivalLane="junctionEast_1" arrivalPos="492.80" arrivalSpeed="7.52" duration="144.00" routeLength="994.90" waitingTime="1.00" waitingCount="1" stopTime="0.00" timeLoss="24.22" rerouteNo="0" devices="tripinfo_westEastTop.7 ssm_westEastTop.7" vType="carCustom" speedFactor="0.92" vaporized=""/>
    <tripinfo id="westEastBottom0.4" depart="37.00" departLane="westJunction_0" departPos="5.10" departSpeed="7.68" departDelay="0.03" arrival="170.00" arrivalLane="junctionEast_0" arrivalPos="492.80" arrivalSpeed="8.25" duration="133.00" routeLength="994.90" waitingTime="0.00" waitingCount="0" stopTime="0.00" timeLoss="12.64" rerouteNo="0" devices="tripinfo_westEastBottom0.4 ssm_westEastBottom0.4" vType="carCustom" speedFactor="1.04" vaporized=""/>
    <tripinfo id="southEast.5" depart="39.00" departLane="southJunction_0" departPos="5.10" departSpeed="7.86" departDelay="0.90" arrival="175.00" arrivalLane="junctionEast_0" arrivalPos="492.80" arrivalSpeed="8.08" duration="136.00" routeLength="989.53" waitingTime="3.00" waitingCount="1" stopTime="0.00" timeLoss="16.71" rerouteNo="0" devices="tripinfo_southEast.5 ssm_southEast.5" vType="carCustom" speedFactor="0.95" vaporized=""/>
    <tripinfo id="southEast.6" depart="44.00" departLane="southJunction_0" departPos="5.10" departSpeed="7.24" departDelay="0.09" arrival="178.00" arrivalLane="junctionEast_0" arrivalPos="492.80" arrivalSpeed="7.82" duration="134.00" routeLength="989.53" waitingTime="0.00" waitingCount="0" stopTime="0.00" timeLoss="14.21" rerouteNo="0" devices="tripinfo_southEast.6 ssm_southEast.6" vType="carCustom" speedFactor="1.06" vaporized=""/>
    <tripinfo id="westEastTop.8" depart="44.00" departLane="westJunction_1" departPos="5.10" departSpeed="7.41" departDelay="0.91" arrival="181.00" arrivalLane="junctionEast_0" arrivalPos="492.80" arrivalSpeed="8.23" duration="137.00" routeLength="994.90" waitingTime="3.00" waitingCount="1" stopTime="0.00" timeLoss="16.67" rerouteNo="0" devices="tripinfo_westEastTop.8 ssm_westEastTop.8" vType="carCustom" speedFactor="0.93" vaporized=""/>
    <tripinfo id="westEastTop.9" depart="52.00" departLane="westJunction_1" departPos="5.10" departSpeed="7.12" departDelay="0.87" arrival="183.00" arrivalLane="junctionEast_1" arrivalPos="492.80" arrivalSpeed="7.70" duration="131.00" routeLength="994.90" waitingTime="0.00" waitingCount="0" stopTime="0.00" timeLoss="10.83" rerouteNo="0" devices="tripinfo_westEastTop.9 ssm_westEastTop.9" vType="carCustom" speedFactor="1.10" vaporized=""/>
    <tripinfo id="southEast.7" depart="52.00" departLane="southJunction_0" departPos="5.10" departSpeed="7.71" departDelay="0.87" arrival="184.00" arrivalLane="junctionEast_0" arrivalPos="492.80" arrivalSpeed="7.73" duration="132.00" routeLength="989.53" waitingTime="0.00" waitingCount="0" stopTime="0.00" timeLoss="12.95" rerouteNo="0" devices="tripinfo_southEast.7 ssm_southEast.7" vType="carCustom" speedFactor="1.00" vaporized=""/>
    <tripinfo id="southNorth.2" depart="51.00" departLane="southJunction_1" departPos="5.10" departSpeed="8.16" departDelay="0.70" arrival="185.00" arrivalLane="junctionNorth_0" arrivalPos="492.80" arrivalSpeed="7.29" duration="134.00" routeLength="995.01" waitingTime="0.00" waitingCount="0" stopTime="0.00" timeLoss="14.46" rerouteNo="0" devices="tripinfo_southNorth.2 ssm_southNorth.2" vType="carCustom" speedFactor="0.96" vaporized=""/>
    <tripinfo id="southEast.8" depart="56.00" departLane="southJunction_0" departPos="5.10" departSpeed="7.89" departDelay="0.67" arrival="186.00" arrivalLane="junctionEast_0" arrivalPos="492.80" arrivalSpeed="8.28" duration="130.00" routeLength="989.53" waitingTime="0.00" waitingCount="0" stopTime="0.00" timeLoss="10.74" rerouteNo="0" devices="tripinfo_southEast.8 ssm_southEast.8" vType="carCustom" speedFactor="0.95" vaporized=""/>
    <tripinfo id="southNorth.3" depart="58.00" departLane="southJunction_1" departPos="5.10" departSpeed="7.87" departDelay="0.12" arrival="188.00" arrivalLane="junctionNorth_0" arrivalPos="492.80" arrivalSpeed="7.81" duration="130.00" routeLength="995.01" waitingTime="0.00" waitingCount="0" stopTime="0.00" timeLoss="10.16" rerouteNo="0" devices="tripinfo_southNorth.3 ssm_southNorth.3" vType="carCustom" speedFactor="0.90" vaporized=""/>
    <tripinfo id="westEastBottom0.5" depart="56.00" departLane="westJunction_0" departPos="5.10" departSpeed="8.31" departDelay="0.07" arrival="191.00" arrivalLane="junctionEast_0" arrivalPos="492.80" arrivalSpeed="7.74" duration="135.00" routeLength="994.90" waitingTime="2.00" waitingCount="1" stopTime="0.00" timeLoss="14.96" rerouteNo="0" devices="tripinfo_westEastBottom0.5 ssm_westEastBottom0.5" vType="carCustom" speedFactor="1.21" vaporized=""/>
    <tripinfo id="southNorth.4" depart="67.00" departLane="southJunction_1" departPos="5.10" departSpeed="7.79" departDelay="0.23" arrival="198.00" arrivalLane="junctionNorth_0" arrivalPos="492.80" arrivalSpeed="7.19" duration="131.00" routeLength="995.01" waitingTime="0.00" waitingCount="0" stopTime="0.00" timeLoss="10.87" rerouteNo="0" devices="tripinfo_southNorth.4 ssm_southNorth.4" vType="carCustom" speedFactor="0.98" vaporized=""/>
    <tripinfo id="westEastTop.10" depart="64.00" departLane="westJunction_1" departPos="5.10" departSpeed="8.24" departDelay="0.04" arrival="201.00" arrivalLane="junctionEast_1" arrivalPos="492.80" arrivalSpeed="8.16" duration="137.00" routeLength="994.90" waitingTime="2.00" waitingCount="1" stopTime="0.00" timeLoss="17.03" rerouteNo="0" devices="tripinfo_westEastTop.10 ssm_westEastTop.10" vType="carCustom" speedFactor="1.03" vaporized=""/>
    <tripinfo id="westEastBottom0.6" depart="65.00" departLane="westJunction_0" departPos="5.10" departSpeed="8.16" departDelay="0.43" arrival="201.00" arrivalLane="junctionEast_0" arrivalPos="492.80" arrivalSpeed="8.05" duration="136.00" routeLength="994.90" waitingTime="2.00" waitingCount="1" stopTime="0.00" timeLoss="16.37" rerouteNo="0" devices="tripinfo_westEastBottom0.6 ssm_westEastBottom0.6" vType="carCustom" speedFactor="0.90" vaporized=""/>
    <tripinfo id="westEastTop.11" depart="66.00" departLane="westJunction_1" departPos="5.10" departSpeed="7.87" departDelay="1.27" arrival="203.00" arrivalLane="junctionEast_1" arrivalPos="492.80" arrivalSpeed="7.82" duration="137.00" routeLength="994.90" waitingTime="2.00" waitingCount="1" stopTime="0.00" timeLoss="17.40" rerouteNo="0" devices="tripinfo_westEastTop.11 ssm_westEastTop.11" vType="carCustom" speedFactor="0.97" vaporized=""/>
    <tripinfo id="westEastBottom0.7" depart="68.00" departLane="westJunction_0" departPos="5.10" departSpeed="7.05" departDelay="1.97" arrival="204.00" arrivalLane="junctionEast_0" arrivalPos="492.80" arrivalSpeed="7.58" duration="136.00" routeLength="994.90" waitingTime="2.00" waitingCount="1" stopTime="0.00" timeLoss="15.76" rerouteNo="0" devices="tripinfo_westEastBottom0.7 ssm_westEastBottom0.7" vType="carCustom" speedFactor="0.87" vaporized=""/>
    <tripinfo id="southEast.9" depart="74.00" departLane="southJunction_0" departPos="5.10" departSpeed="7.71" departDelay="0.52" arrival="206.00" arrivalLane="junctionEast_0" arrivalPos="492.80" arrivalSpeed="7.41" duration="132.00" routeLength="989.53" waitingTime="0.00" waitingCount="0" stopTime="0.00" timeLoss="12.52" rerouteNo="0" devices="tripinfo_southEast.9 ssm_southEast.9" vType="carCustom" speedFactor="1.12" vaporized=""/>
    <tripinfo id="southEast.10" depart="77.00" departLane="southJunction_0" departPos="5.10" departSpeed="7.24" departDelay="0.40" arrival="208.00" arrivalLane="junctionEast_1" arrivalPos="492.80" arrivalSpeed="7.38" duration="131.00" routeLength="989.53" waitingTime="0.00" waitingCount="0" stopTime="0.00" timeLoss="11.23" rerouteNo="0" devices="tripinfo_southEast.10 ssm_southEast.10" vType="carCustom" speedFactor="0.95" vaporized=""/>
    <tripinfo id="westEastTop.12" depart="69.00" departLane="westJunction_1" departPos="5.10" departSpeed="7.20" departDelay="2.96" arrival="211.00" arrivalLane="junctionEast_1" arrivalPos="492.80" arrivalSpeed="7.47" duration="142.00" routeLength="994.90" waitingTime="5.00" waitingCount="2" stopTime="0.00" timeLoss="22.19" rerouteNo="0" devices="tripinfo_westEastTop.12 ssm_westEastTop.12" vType="carCustom" speedFactor="1.16" vaporized=""/>
    <tripinfo id="westEastBottom0.8" depart="74.00" departLane="westJunction_0" departPos="5.10" departSpeed="7.09" departDelay="0.43" arrival="211.00" arrivalLane="junctionEast_0" arrivalPos="492.80" arrivalSpeed="8.06" duration="137.00" routeLength="994.90" waitingTime="3.00" waitingCount="1" stopTime="0.00" timeLoss="16.69" rerouteNo="0" devices="tripinfo_westEastBottom0.8 ssm_westEastBottom0.8" vType="carCustom" speedFactor="1.19" vaporized=""/>
    <tripinfo id="southEast.11" depart="86.00" departLane="southJunction_0" departPos="5.10" departSpeed="7.25" departDelay="0.56" arrival="216.00" arrivalLane="junctionEast_0" arrivalPos="492.80" arrivalSpeed="8.08" duration="130.00" routeLength="989.53" waitingTime="0.00" waitingCount="0" stopTime="0.00" timeLoss="10.17" rerouteNo="0" devices="tripinfo_southEast.11 ssm_southEast.11" vType="carCustom" speedFactor="0.99" vaporized=""/>
    <tripinfo id="westEastTop.13" depart="84.00" departLane="westJunction_1" departPos="5.10" departSpeed="7.43" departDelay="0.52" arrival="221.00" arrivalLane="junctionEast_1" arrivalPos="492.80" arrivalSpeed="7.68" duration="137.00" routeLength="994.90" waitingTime="3.00" waitingCount="1" stopTime="0.00" timeLoss="17.43" rerouteNo="0" devices="tripinfo_westEastTop.13 ssm_westEastTop.13" vType="carCustom" speedFactor="1.10" vaporized=""/>
    <tripinfo id="westEastBottom0.9" depart="91.00" departLane="westJunction_0" departPos="5.10" departSpeed="7.90" departDelay="0.92" arrival="221.00" arrivalLane="junctionEast_0" arrivalPos="492.80" arrivalSpeed="7.15" duration="130.00" routeLength="994.90" waitingTime="0.00" waitingCount="0" stopTime="0.00" timeLoss="10.52" rerouteNo="0" devices="tripinfo_westEastBottom0.9 ssm_westEastBottom0.9" vType="carCustom" speedFactor="1.00" vaporized=""/>
    <tripinfo id="westEastTop.14" depart="90.00" departLane="westJunction_1" departPos="5.10" departSpeed="7.43" departDelay="0.81" arrival="224.00" arrivalLane="junctionEast_0" arrivalPos="492.80" arrivalSpeed="8.32" duration="134.00" routeLength="994.90" waitingTime="0.00" waitingCount="0" stopTime="0.00" timeLoss="13.58" rerouteNo="0" devices="tripinfo_westEastTop.14 ssm_westEastTop.14" vType="carCustom" speedFactor="0.88" vaporized=""/>
    <tripinfo id="southNorth.5" depart="90.00" departLane="southJunction_1" departPos="5.10" departSpeed="7.70" departDelay="0.75" arrival="226.00" arrivalLane="junctionNorth_0" arrivalPos="492.80" arrivalSpeed="7.53" duration="136.00" routeLength="995.01" waitingTime="2.00" waitingCount="1" stopTime="0.00" timeLoss="16.27" rerouteNo="0" devices="tripinfo_southNorth.5 ssm_southNorth.5" vType="carCustom" speedFactor="1.03" vaporized=""/>
    <tripinfo id="southNorth.6" depart="96.00" departLane="southJunction_1" departPos="5.10" departSpeed="8.30" departDelay="0.19" arrival="228.00" arrivalLane="junctionNorth_0" arrivalPos="492.80" arrivalSpeed="7.35" duration="132.00" routeLength="995.01" waitingTime="0.00" waitingCount="0" stopTime="0.00" timeLoss="12.46" rerouteNo="0" devices="tripinfo_southNorth.6 ssm_southNorth.6" vType="carCustom" speedFactor="1.08" vaporized=""/>
    <tripinfo id="westEastBottom0.10" depart="99.00" departLane="westJunction_0" departPos="5.10" departSpeed="8.31" departDelay="0.17" arrival="230.00" arrivalLane="junctionEast_0" arrivalPos="492.80" arrivalSpeed="7.35" duration="131.00" routeLength="994.90" waitingTime="0.00" waitingCount="0" stopTime="0.00" timeLoss="11.14" rerouteNo="0" devices="tripinfo_westEastBottom0.10 ssm_westEastBottom0.10" vType="carCustom" speedFactor="1.05" vaporized=""/>
    <tripinfo id="westEastTop.15" depart="92.00" departLane="westJunction_1" departPos="5.10" departSpeed="7.82" departDelay="2.60" arrival="231.00" arrivalLane="junctionEast_1" arrivalPos="492.80" arrivalSpeed="8.01" duration="139.00" routeLength="994.90" waitingTime="1.00" waitingCount="1" stopTime="0.00" timeLoss="19.01" rerouteNo="0" devices="tripinfo_westEastTop.15 ssm_westEastTop.15" vType="carCustom" speedFactor="0.96" vaporized=""/>
    <tripinfo id="westEastTop.16" depart="95.00" departLane="westJunction_1" departPos="5.10" departSpeed="7.65" departDelay="2.34" arrival="233.00" arrivalLane="junctionEast_1" arrivalPos="492.80" arrivalSpeed="8.18" duration="138.00" routeLength="994.90" waitingTime="1.00" waitingCount="1" stopTime="0.00" timeLoss="18.23" rerouteNo="0" devices="tripinfo_westEastTop.16 ssm_westEastTop.16" vType="carCustom" speedFactor="1.00" vaporized=""/>
    <tripinfo id="westEastBottom0.11" depart="102.00" departLane="westJunction_0" departPos="5.10" departSpeed="7.31" departDelay="2.78" arrival="233.00" arrivalLane="junctionEast_0" arrivalPos="492.80" arrivalSpeed="8.01" duration="131.00" routeLength="994.90" waitingTime="0.00" waitingCount="0" stopTime="0.00" timeLoss="11.08" rerouteNo="0" devices="tripinfo_westEastBottom0.11 ssm_westEastBottom0.11" vType="carCustom" speedFactor="1.28" vaporized=""/>
    <tripinfo id="westEastTop.17" depart="98.00" departLane="westJunction_1" departPos="5.10" departSpeed="8.03" departDelay="3.90" arrival="241.00" arrivalLane="junctionEast_1" arrivalPos="492.80" arrivalSpeed="7.73" duration="143.00" routeLength="994.90" waitingTime="3.00" waitingCount="1" stopTime="0.00" timeLoss="22.83" rerouteNo="0" devices="tripinfo_westEastTop.17 ssm_westEastTop.17" vType="carCustom" speedFactor="0.95" vaporized=""/>
    <tripinfo id="westEastBottom0.12" depart="109.00" departLane="westJunction_0" departPos="5.10" departSpeed="7.44" departDelay="0.38" arrival="241.00" arrivalLane="junctionEast_0" arrivalPos="492.80" arrivalSpeed="7.65" duration="132.00" routeLength="994.90" waitingTime="0.00" waitingCount="0" stopTime="0.00" timeLoss="11.78" rerouteNo="0" devices="tripinfo_westEastBottom0.12 ssm_westEastBottom0.12" vType="carCustom" speedFactor="0.77" vaporized=""/>
    <tripinfo id="southEast.12" depart="113.00" departLane="southJunction_0" departPos="5.10" departSpeed="7.60" departDelay="0.01" arrival="243.00" arrivalLane="junctionEast_0" arrivalPos="492.80" arrivalSpeed="7.67" duration="130.00" routeLength="989.53" waitingTime="0.00" waitingCount="0" stopTime="0.00" timeLoss="10.30" rerouteNo="0" devices="tripinfo_southEast.12 ssm_southEast.12" vType="carCustom" speedFactor="0.88" vaporized=""/>
    <tripinfo id="southEast.13" depart="115.00" departLane="southJunction_0" departPos="5.10" departSpeed="8.27" departDelay="0.60" arrival="247.00" arrivalLane="junctionEast_0" arrivalPos="492.80" arrivalSpeed="7.69" duration="132.00" routeLength="989.53" waitingTime="0.00" waitingCount="0" stopTime="0.00" timeLoss="12.19" rerouteNo="0" devices="tripinfo_southEast.13 ssm_southEast.13" vType="carCustom" speedFactor="1.07" vaporized=""/>
    <tripinfo id="southEast.14" depart="118.00" departLane="southJunction_0" departPos="5.10" departSpeed="7.35" departDelay="0.55" arrival="249.00" arrivalLane="junctionEast_0" arrivalPos="492.80" arrivalSpeed="7.11" duration="131.00" routeLength="989.53" waitingTime="0.00" waitingCount="0" stopTime="0.00" timeLoss="11.46" rerouteNo="0" devices="tripinfo_southEast.14 ssm_southEast.14" vType="carCustom" speedFactor="1.04" vaporized=""/>
    <tripinfo id="westEastTop.18" depart="105.00" departLane="westJunction_1" departPos="5.10" departSpeed="7.84" departDelay="0.42" arrival="251.00" arrivalLane="junctionEast_0" arrivalPos="492.80" arrivalSpeed="7.75" duration="146.00" routeLength="994.90" waitingTime="8.00" waitingCount="2" stopTime="0.00" timeLoss="26.42" rerouteNo="0" devices="tripinfo_westEastTop.18 ssm_westEastTop.18" vType="carCustom" speedFactor="0.80" vaporized=""/>
    <tripinfo id="westEastTop.19" depart="111.00" departLane="westJunction_1" departPos="5.10" departSpeed="7.90" departDelay="0.32" arrival="254.00" arrivalLane="junctionEast_1" arrivalPos="492.80" arrivalSpeed="7.13" duration="143.00" routeLength="994.90" waitingTime="5.00" waitingCount="2" stopTime="0.00" timeLoss="22.81" rerouteNo="0" devices="tripinfo_westEastTop.19 ssm_westEastTop.19" vType="carCustom" speedFactor="0.92" vaporized=""/>
    <tripinfo id="southNorth.7" depart="120.00" departLane="southJunction_1" departPos="5.10" departSpeed="8.07" departDelay="0.74" arrival="256.00" arrivalLane="junctionNorth_0" arrivalPos="492.80" arrivalSpeed="7.63" duration="136.00" routeLength="995.01" waitingTime="3.00" waitingCount="1" stopTime="0.00" timeLoss="16.09" rerouteNo="0" devices="tripinfo_southNorth.7 ssm_southNorth.7" vType="carCustom" speedFactor="1.00" vaporized=""/>
    <tripinfo id="southNorth.8" depart="123.00" departLane="southJunction_1" departPos="5.10" departSpeed="7.24" departDelay="0.77" arrival="259.00" arrivalLane="junctionNorth_0" arrivalPos="492.80" arrivalSpeed="7.53" duration="136.00" routeLength="995.01" waitingTime="2.00" waitingCount="1" stopTime="0.00" timeLoss="15.71" rerouteNo="0" devices="tripinfo_southNorth.8 ssm_southNorth.8" vType="carCustom" speedFactor="1.04" vaporized=""/>
    <tripinfo id="westEastBottom0.13" depart="128.00" departLane="westJunction_0" departPos="5.10" departSpeed="7.23" departDelay="0.53" arrival="261.00" arrivalLane="junctionEast_0" arrivalPos="492.80" arrivalSpeed="7.67" duration="133.00" routeLength="994.90" waitingTime="0.00" waitingCount="0" stopTime="0.00" timeLoss="12.72" rerouteNo="0" devices="tripinfo_westEastBottom0.13 ssm_westEastBottom0.13" vType="carCustom" speedFactor="0.96" vaporized=""/>
    <tripinfo id="westEastTop.20" depart="113.00" departLane="westJunction_1" departPos="5.10" departSpeed="8.30" departDelay="1.37" arrival="262.00" arrivalLane="junctionEast_1" arrivalPos="492.80" arrivalSpeed="7.04" duration="149.00" routeLength="994.90" waitingTime="5.00" waitingCount="2" stopTime="0.00" timeLoss="29.31" rerouteNo="0" devices="tripinfo_westEastTop.20 ssm_westEastTop.20" vType="carCustom" speedFactor="1.12" vaporized=""/>
    <tripinfo id="westEastTop.21" depart="123.00" departLane="westJunction_1" departPos="5.10" departSpeed="7.44" departDelay="0.09" arrival="264.00" arrivalLane="junctionEast_1" arrivalPos="492.80" arrivalSpeed="7.67" duration="141.00" routeLength="994.90" waitingTime="2.00" waitingCount="2" stopTime="0.00" timeLoss="21.45" rerouteNo="0" devices="tripinfo_westEastTop.21 ssm_westEastTop.21" vType="carCustom" speedFactor="1.09" vaporized=""/>
    <tripinfo id="southEast.15" depart="135.00" departLane="southJunction_0" departPos="5.10" departSpeed="8.21" departDelay="0.10" arrival="265.00" arrivalLane="junctionEast_0" arrivalPos="492.80" arrivalSpeed="7.04" duration="130.00" routeLength="989.53" waitingTime="0.00" waitingCount="0" stopTime="0.00" timeLoss="9.95" rerouteNo="0" devices="tripinfo_southEast.15 ssm_southEast.15" vType="carCustom" speedFactor="0.96" vaporized=""/>
    <tripinfo id="southEast.16" depart="137.00" departLane="southJunction_0" departPos="5.10" departSpeed="7.95" departDelay="0.69" arrival="268.00" arrivalLane="junctionEast_0" arrivalPos="492.80" arrivalSpeed="7.28" duration="131.00" routeLength="989.53" waitingTime="0.00" waitingCount="0" stopTime="0.00" timeLoss="11.25" rerouteNo="0" devices="tripinfo_southEast.16 ssm_southEast.16" vType="carCustom" speedFactor="1.12" vaporized=""/>
    <tripinfo id="westEastBottom0.14" depart="142.00" departLane="westJunction_0" departPos="5.10" departSpeed="7.78" departDelay="0.97" arrival="273.00" arrivalLane="junctionEast_0" arrivalPos="492.80" arrivalSpeed="8.16" duration="131.00" routeLength="994.90" waitingTime="0.00" waitingCount="0" stopTime="0.00" timeLoss="11.14" rerouteNo="0" devices="tripinfo_westEastBottom0.14 ssm_westEastBottom0.14" vType="carCustom" speedFactor="1.00" vaporized=""/>