<?xml version="1.0" encoding="UTF-8"?>

<!-- generated on 2025-04-29 09:23:54 by Eclipse SUMO sumo Version 1.20.0
<configuration xmlns:xsi="http://www.w3.org/2001/XMLSchema-instance" xsi:noNamespaceSchemaLocation="http://sumo.dlr.de/xsd/sumoConfiguration.xsd">

    <input>
        <net-file value="nets/2lane_unprotected_right/2lane_unprotected_right.net.xml"/>
        <route-files value="nets/2lane_unprotected_right/2lane_unprotected_right.rou.xml"/>
    </input>

    <output>
        <tripinfo-output value="traces/transs50f0.5_s50_f1_random/0209_tripinfo.xml"/>
        <collision-output value="traces/transs50f0.5_s50_f1_random/0209_collisions.xml"/>
        <statistic-output value="traces/transs50f0.5_s50_f1_random/0209_statistics.xml"/>
    </output>

    <processing>
        <collision.action value="teleport"/>
        <collision.check-junctions value="true"/>
        <time-to-teleport value="-1"/>
        <waiting-time-memory value="1000"/>
        <max-depart-delay value="-1"/>
        <default.speeddev value="0.1"/>
    </processing>

    <report>
        <no-warnings value="true"/>
    </report>

    <ssm_device>
        <device.ssm.probability value="1.0"/>
        <device.ssm.measures value="BR"/>
        <device.ssm.file value="/Users/finn/Code/CausalKnowledgeTransfer-4-SafeRL/traces/transs50f0.5_s50_f1_random/0209_ssm.xml"/>
    </ssm_device>

    <traci_server>
        <remote-port value="64990"/>
    </traci_server>

    <random_number>
        <random value="true"/>
    </random_number>

</configuration>
-->

<tripinfos xmlns:xsi="http://www.w3.org/2001/XMLSchema-instance" xsi:noNamespaceSchemaLocation="http://sumo.dlr.de/xsd/tripinfo_file.xsd">
    <tripinfo id="southEast.2" depart="26.00" departLane="southJunction_0" departPos="5.10" departSpeed="7.21" departDelay="0.40" arrival="93.00" arrivalLane="junctionEast_0" arrivalPos="492.80" arrivalSpeed="3.18" duration="67.00" routeLength="989.53" waitingTime="0.00" waitingCount="0" stopTime="0.00" timeLoss="6.83" rerouteNo="0" devices="tripinfo_southEast.2 ssm_southEast.2" vType="carCustom" speedFactor="0.99" vaporized="teleport"/>
    <tripinfo id="westEastBottom0.6" depart="37.00" departLane="westJunction_0" departPos="5.10" departSpeed="7.23" departDelay="0.47" arrival="114.00" arrivalLane="junctionEast_0" arrivalPos="492.80" arrivalSpeed="3.08" duration="77.00" routeLength="994.90" waitingTime="0.00" waitingCount="0" stopTime="0.00" timeLoss="16.47" rerouteNo="0" devices="tripinfo_westEastBottom0.6 ssm_westEastBottom0.6" vType="carCustom" speedFactor="0.82" vaporized="teleport"/>
    <tripinfo id="westEastBottom0.0" depart="1.00" departLane="westJunction_0" departPos="5.10" departSpeed="8.33" departDelay="0.01" arrival="131.00" arrivalLane="junctionEast_0" arrivalPos="492.80" arrivalSpeed="7.60" duration="130.00" routeLength="994.90" waitingTime="0.00" waitingCount="0" stopTime="0.00" timeLoss="10.39" rerouteNo="0" devices="tripinfo_westEastBottom0.0 ssm_westEastBottom0.0" vType="carCustom" speedFactor="1.00" vaporized=""/>
    <tripinfo id="westEastTop.0" depart="3.00" departLane="westJunction_1" departPos="5.10" departSpeed="8.33" departDelay="0.16" arrival="133.00" arrivalLane="junctionEast_1" arrivalPos="492.80" arrivalSpeed="7.66" duration="130.00" routeLength="994.90" waitingTime="0.00" waitingCount="0" stopTime="0.00" timeLoss="9.99" rerouteNo="0" devices="tripinfo_westEastTop.0 ssm_westEastTop.0" vType="carCustom" speedFactor="1.01" vaporized=""/>
    <tripinfo id="southEast.0" depart="7.00" departLane="southJunction_0" departPos="5.10" departSpeed="8.33" departDelay="0.40" arrival="137.00" arrivalLane="junctionEast_0" arrivalPos="492.80" arrivalSpeed="7.65" duration="130.00" routeLength="989.53" waitingTime="0.00" waitingCount="0" stopTime="0.00" timeLoss="10.99" rerouteNo="0" devices="tripinfo_southEast.0 ssm_southEast.0" vType="carCustom" speedFactor="0.99" vaporized=""/>
    <tripinfo id="westEastBottom0.1" depart="8.00" departLane="westJunction_0" departPos="5.10" departSpeed="7.05" departDelay="0.52" arrival="143.00" arrivalLane="junctionEast_1" arrivalPos="492.80" arrivalSpeed="7.81" duration="135.00" routeLength="994.90" waitingTime="1.00" waitingCount="1" stopTime="0.00" timeLoss="15.30" rerouteNo="0" devices="tripinfo_westEastBottom0.1 ssm_westEastBottom0.1" vType="carCustom" speedFactor="1.10" vaporized=""/>
    <tripinfo id="westEastTop.1" depart="5.00" departLane="westJunction_1" departPos="5.10" departSpeed="8.23" departDelay="2.10" arrival="144.00" arrivalLane="junctionEast_0" arrivalPos="492.80" arrivalSpeed="7.66" duration="139.00" routeLength="994.90" waitingTime="0.00" waitingCount="0" stopTime="0.00" timeLoss="18.70" rerouteNo="0" devices="tripinfo_westEastTop.1 ssm_westEastTop.1" vType="carCustom" speedFactor="0.87" vaporized=""/>
    <tripinfo id="westEastBottom0.9" depart="71.00" departLane="westJunction_0" departPos="5.10" departSpeed="7.88" departDelay="0.93" arrival="145.00" arrivalLane="junctionEast_0" arrivalPos="492.80" arrivalSpeed="2.71" duration="74.00" routeLength="994.90" waitingTime="2.00" waitingCount="1" stopTime="0.00" timeLoss="13.54" rerouteNo="0" devices="tripinfo_westEastBottom0.9 ssm_westEastBottom0.9" vType="carCustom" speedFactor="1.02" vaporized="teleport"/>
    <tripinfo id="southEast.1" depart="16.00" departLane="southJunction_0" departPos="5.10" departSpeed="7.65" departDelay="0.34" arrival="149.00" arrivalLane="junctionEast_0" arrivalPos="492.80" arrivalSpeed="7.86" duration="133.00" routeLength="989.53" waitingTime="0.00" waitingCount="0" stopTime="0.00" timeLoss="13.94" rerouteNo="0" devices="tripinfo_southEast.1 ssm_southEast.1" vType="carCustom" speedFactor="1.07" vaporized=""/>
    <tripinfo id="westEastTop.2" depart="8.00" departLane="westJunction_1" departPos="5.10" departSpeed="3.91" departDelay="4.66" arrival="155.00" arrivalLane="junctionEast_0" arrivalPos="492.80" arrivalSpeed="7.18" duration="147.00" routeLength="994.90" waitingTime="3.00" waitingCount="1" stopTime="0.00" timeLoss="27.56" rerouteNo="0" devices="tripinfo_westEastTop.2 ssm_westEastTop.2" vType="carCustom" speedFactor="1.06" vaporized=""/>
    <tripinfo id="westEastTop.3" depart="12.00" departLane="westJunction_1" departPos="5.10" departSpeed="3.97" departDelay="5.44" arrival="156.00" arrivalLane="junctionEast_1" arrivalPos="492.80" arrivalSpeed="7.98" duration="144.00" routeLength="994.90" waitingTime="0.00" waitingCount="0" stopTime="0.00" timeLoss="24.56" rerouteNo="0" devices="tripinfo_westEastTop.3 ssm_westEastTop.3" vType="carCustom" speedFactor="0.98" vaporized=""/>
    <tripinfo id="southNorth.0" depart="26.00" departLane="southJunction_1" departPos="5.10" departSpeed="8.33" departDelay="0.51" arrival="158.00" arrivalLane="junctionNorth_0" arrivalPos="492.80" arrivalSpeed="8.26" duration="132.00" routeLength="995.01" waitingTime="0.00" waitingCount="0" stopTime="0.00" timeLoss="11.68" rerouteNo="0" devices="tripinfo_southNorth.0 ssm_southNorth.0" vType="carCustom" speedFactor="1.08" vaporized=""/>
    <tripinfo id="westEastBottom0.2" depart="10.00" departLane="westJunction_0" departPos="5.10" departSpeed="7.03" departDelay="0.55" arrival="161.00" arrivalLane="junctionEast_0" arrivalPos="492.80" arrivalSpeed="7.53" duration="151.00" routeLength="994.90" waitingTime="3.00" waitingCount="1" stopTime="0.00" timeLoss="31.44" rerouteNo="0" devices="tripinfo_westEastBottom0.2 ssm_westEastBottom0.2" vType="carCustom" speedFactor="0.85" vaporized=""/>
    <tripinfo id="westEastBottom0.3" depart="21.00" departLane="westJunction_0" departPos="5.10" departSpeed="6.85" departDelay="0.59" arrival="163.00" arrivalLane="junctionEast_1" arrivalPos="492.80" arrivalSpeed="7.72" duration="142.00" routeLength="994.90" waitingTime="0.00" waitingCount="0" stopTime="0.00" timeLoss="22.30" rerouteNo="0" devices="tripinfo_westEastBottom0.3 ssm_westEastBottom0.3" vType="carCustom" speedFactor="1.20" vaporized=""/>
    <tripinfo id="westEastBottom0.4" depart="23.00" departLane="westJunction_0" departPos="5.10" departSpeed="8.08" departDelay="1.18" arrival="167.00" arrivalLane="junctionEast_0" arrivalPos="492.80" arrivalSpeed="7.17" duration="144.00" routeLength="994.90" waitingTime="0.00" waitingCount="0" stopTime="0.00" timeLoss="24.50" rerouteNo="0" devices="tripinfo_westEastBottom0.4 ssm_westEastBottom0.4" vType="carCustom" speedFactor="0.92" vaporized=""/>
    <tripinfo id="southNorth.1" depart="30.00" departLane="southJunction_1" departPos="5.10" departSpeed="7.15" departDelay="0.67" arrival="168.00" arrivalLane="junctionNorth_0" arrivalPos="492.80" arrivalSpeed="7.63" duration="138.00" routeLength="995.01" waitingTime="2.00" waitingCount="1" stopTime="0.00" timeLoss="18.03" rerouteNo="0" devices="tripinfo_southNorth.1 ssm_southNorth.1" vType="carCustom" speedFactor="0.99" vaporized=""/>
    <tripinfo id="westEastTop.4" depart="16.00" departLane="westJunction_1" departPos="5.10" departSpeed="3.59" departDelay="9.43" arrival="169.00" arrivalLane="junctionEast_1" arrivalPos="492.80" arrivalSpeed="7.88" duration="153.00" routeLength="994.90" waitingTime="0.00" waitingCount="0" stopTime="0.00" timeLoss="33.18" rerouteNo="0" devices="tripinfo_westEastTop.4 ssm_westEastTop.4" vType="carCustom" speedFactor="0.97" vaporized=""/>
    <tripinfo id="southEast.3" depart="28.00" departLane="southJunction_0" departPos="5.10" departSpeed="8.21" departDelay="1.12" arrival="173.00" arrivalLane="junctionEast_0" arrivalPos="492.80" arrivalSpeed="7.07" duration="145.00" routeLength="989.53" waitingTime="2.00" waitingCount="1" stopTime="0.00" timeLoss="25.83" rerouteNo="0" devices="tripinfo_southEast.3 ssm_southEast.3" vType="carCustom" speedFactor="1.01" vaporized=""/>
    <tripinfo id="westEastTop.6" depart="25.00" departLane="westJunction_1" departPos="5.10" departSpeed="2.68" departDelay="14.49" arrival="178.00" arrivalLane="junctionEast_0" arrivalPos="492.80" arrivalSpeed="8.25" duration="153.00" routeLength="994.90" waitingTime="0.00" waitingCount="0" stopTime="0.00" timeLoss="33.01" rerouteNo="0" devices="tripinfo_westEastTop.6 ssm_westEastTop.6" vType="carCustom" speedFactor="0.88" vaporized=""/>
    <tripinfo id="westEastTop.5" depart="20.00" departLane="westJunction_1" departPos="5.10" departSpeed="3.10" departDelay="13.12" arrival="179.00" arrivalLane="junctionEast_1" arrivalPos="492.80" arrivalSpeed="7.56" duration="159.00" routeLength="994.90" waitingTime="3.00" waitingCount="1" stopTime="0.00" timeLoss="39.37" rerouteNo="0" devices="tripinfo_westEastTop.5 ssm_westEastTop.5" vType="carCustom" speedFactor="0.98" vaporized=""/>
    <tripinfo id="southNorth.2" depart="49.00" departLane="southJunction_1" departPos="5.10" departSpeed="8.10" departDelay="0.41" arrival="182.00" arrivalLane="junctionNorth_0" arrivalPos="492.80" arrivalSpeed="7.87" duration="133.00" routeLength="995.01" waitingTime="0.00" waitingCount="0" stopTime="0.00" timeLoss="13.45" rerouteNo="0" devices="tripinfo_southNorth.2 ssm_southNorth.2" vType="carCustom" speedFactor="1.12" vaporized=""/>
    <tripinfo id="westEastTop.7" depart="30.00" departLane="westJunction_1" departPos="5.10" departSpeed="3.06" departDelay="6.62" arrival="185.00" arrivalLane="junctionEast_1" arrivalPos="492.80" arrivalSpeed="7.97" duration="155.00" routeLength="994.90" waitingTime="0.00" waitingCount="0" stopTime="0.00" timeLoss="34.69" rerouteNo="0" devices="tripinfo_westEastTop.7 ssm_westEastTop.7" vType="carCustom" speedFactor="1.17" vaporized=""/>
    <tripinfo id="westEastBottom0.5" depart="30.00" departLane="westJunction_0" departPos="5.10" departSpeed="6.19" departDelay="0.65" arrival="185.00" arrivalLane="junctionEast_0" arrivalPos="492.80" arrivalSpeed="7.27" duration="155.00" routeLength="994.90" waitingTime="3.00" waitingCount="1" stopTime="0.00" timeLoss="34.88" rerouteNo="0" devices="tripinfo_westEastBottom0.5 ssm_westEastBottom0.5" vType="carCustom" speedFactor="1.06" vaporized=""/>
    <tripinfo id="westEastTop.8" depart="35.00" departLane="westJunction_1" departPos="5.10" departSpeed="2.80" departDelay="10.18" arrival="191.00" arrivalLane="junctionEast_1" arrivalPos="492.80" arrivalSpeed="8.06" duration="156.00" routeLength="994.90" waitingTime="0.00" waitingCount="0" stopTime="0.00" timeLoss="35.65" rerouteNo="0" devices="tripinfo_westEastTop.8 ssm_westEastTop.8" vType="carCustom" speedFactor="1.03" vaporized=""/>
    <tripinfo id="southEast.4" depart="39.00" departLane="southJunction_0" departPos="5.10" departSpeed="6.61" departDelay="0.55" arrival="191.00" arrivalLane="junctionEast_0" arrivalPos="492.80" arrivalSpeed="7.88" duration="152.00" routeLength="989.53" waitingTime="3.00" waitingCount="1" stopTime="0.00" timeLoss="32.14" rerouteNo="0" devices="tripinfo_southEast.4 ssm_southEast.4" vType="carCustom" speedFactor="0.94" vaporized=""/>
    <tripinfo id="southNorth.3" depart="54.00" departLane="southJunction_1" departPos="5.10" departSpeed="7.40" departDelay="0.05" arrival="193.00" arrivalLane="junctionNorth_0" arrivalPos="492.80" arrivalSpeed="7.70" duration="139.00" routeLength="995.01" waitingTime="3.00" waitingCount="1" stopTime="0.00" timeLoss="19.43" rerouteNo="0" devices="tripinfo_southNorth.3 ssm_southNorth.3" vType="carCustom" speedFactor="0.93" vaporized=""/>
    <tripinfo id="southEast.5" depart="43.00" departLane="southJunction_0" departPos="5.10" departSpeed="7.17" departDelay="0.47" arrival="196.00" arrivalLane="junctionEast_0" arrivalPos="492.80" arrivalSpeed="7.54" duration="153.00" routeLength="989.53" waitingTime="0.00" waitingCount="0" stopTime="0.00" timeLoss="33.92" rerouteNo="0" devices="tripinfo_southEast.5 ssm_southEast.5" vType="carCustom" speedFactor="1.14" vaporized=""/>
    <tripinfo id="southEast.6" depart="49.00" departLane="southJunction_0" departPos="5.10" departSpeed="6.52" departDelay="0.27" arrival="196.00" arrivalLane="junctionEast_1" arrivalPos="492.80" arrivalSpeed="7.45" duration="147.00" routeLength="989.53" waitingTime="4.00" waitingCount="1" stopTime="0.00" timeLoss="27.40" rerouteNo="0" devices="tripinfo_southEast.6 ssm_southEast.6" vType="carCustom" speedFactor="0.88" vaporized=""/>
    <tripinfo id="westEastTop.9" depart="39.00" departLane="westJunction_1" departPos="5.10" departSpeed="2.85" departDelay="13.40" arrival="202.00" arrivalLane="junctionEast_1" arrivalPos="492.80" arrivalSpeed="7.56" duration="163.00" routeLength="994.90" waitingTime="4.00" waitingCount="1" stopTime="0.00" timeLoss="43.11" rerouteNo="0" devices="tripinfo_westEastTop.9 ssm_westEastTop.9" vType="carCustom" speedFactor="0.85" vaporized=""/>
    <tripinfo id="westEastBottom0.7" depart="40.00" departLane="westJunction_0" departPos="5.10" departSpeed="7.75" departDelay="2.80" arrival="202.00" arrivalLane="junctionEast_0" arrivalPos="492.80" arrivalSpeed="7.37" duration="162.00" routeLength="994.90" waitingTime="4.00" waitingCount="1" stopTime="0.00" timeLoss="42.04" rerouteNo="0" devices="tripinfo_westEastBottom0.7 ssm_westEastBottom0.7" vType="carCustom" speedFactor="1.15" vaporized=""/>
    <tripinfo id="southNorth.4" depart="59.00" departLane="southJunction_1" departPos="5.10" departSpeed="7.89" departDelay="0.06" arrival="204.00" arrivalLane="junctionNorth_0" arrivalPos="492.80" arrivalSpeed="7.99" duration="145.00" routeLength="995.01" waitingTime="4.00" waitingCount="1" stopTime="0.00" timeLoss="24.82" rerouteNo="0" devices="tripinfo_southNorth.4 ssm_southNorth.4" vType="carCustom" speedFactor="0.83" vaporized=""/>
    <tripinfo id="westEastTop.10" depart="44.00" departLane="westJunction_1" departPos="5.10" departSpeed="2.92" departDelay="16.64" arrival="208.00" arrivalLane="junctionEast_1" arrivalPos="492.80" arrivalSpeed="7.74" duration="164.00" routeLength="994.90" waitingTime="5.00" waitingCount="1" stopTime="0.00" timeLoss="44.26" rerouteNo="0" devices="tripinfo_westEastTop.10 ssm_westEastTop.10" vType="carCustom" speedFactor="0.94" vaporized=""/>
    <tripinfo id="southEast.7" depart="59.00" departLane="southJunction_0" departPos="5.10" departSpeed="7.42" departDelay="0.46" arrival="208.00" arrivalLane="junctionEast_0" arrivalPos="492.80" arrivalSpeed="7.87" duration="149.00" routeLength="989.53" waitingTime="0.00" waitingCount="0" stopTime="0.00" timeLoss="29.56" rerouteNo="0" devices="tripinfo_southEast.7 ssm_southEast.7" vType="carCustom" speedFactor="1.03" vaporized=""/>
    <tripinfo id="westEastBottom0.8" depart="47.00" departLane="westJunction_0" departPos="5.10" departSpeed="6.38" departDelay="0.71" arrival="213.00" arrivalLane="junctionEast_0" arrivalPos="492.80" arrivalSpeed="8.30" duration="166.00" routeLength="994.90" waitingTime="3.00" waitingCount="1" stopTime="0.00" timeLoss="46.38" rerouteNo="0" devices="tripinfo_westEastBottom0.8 ssm_westEastBottom0.8" vType="carCustom" speedFactor="0.92" vaporized=""/>
    <tripinfo id="southNorth.5" depart="74.00" departLane="southJunction_1" departPos="5.10" departSpeed="7.03" departDelay="0.66" arrival="213.00" arrivalLane="junctionNorth_0" arrivalPos="492.80" arrivalSpeed="8.17" duration="139.00" routeLength="995.01" waitingTime="3.00" waitingCount="1" stopTime="0.00" timeLoss="18.99" rerouteNo="0" devices="tripinfo_southNorth.5 ssm_southNorth.5" vType="carCustom" speedFactor="1.05" vaporized=""/>
    <tripinfo id="southEast.9" depart="69.00" departLane="southJunction_0" departPos="5.10" departSpeed="7.92" departDelay="1.69" arrival="214.00" arrivalLane="junctionEast_1" arrivalPos="492.80" arrivalSpeed="7.57" duration="145.00" routeLength="989.53" waitingTime="0.00" waitingCount="0" stopTime="0.00" timeLoss="25.54" rerouteNo="0" devices="tripinfo_southEast.9 ssm_southEast.9" vType="carCustom" speedFactor="0.94" vaporized=""/>
    <tripinfo id="southEast.8" depart="66.00" departLane="southJunction_0" departPos="5.10" departSpeed="7.13" departDelay="0.19" arrival="219.00" arrivalLane="junctionEast_0" arrivalPos="492.80" arrivalSpeed="8.30" duration="153.00" routeLength="989.53" waitingTime="0.00" waitingCount="0" stopTime="0.00" timeLoss="33.59" rerouteNo="0" devices="tripinfo_southEast.8 ssm_southEast.8" vType="carCustom" speedFactor="1.13" vaporized=""/>
    <tripinfo id="westEastTop.11" depart="49.00" departLane="westJunction_1" departPos="5.10" departSpeed="3.50" departDelay="16.83" arrival="220.00" arrivalLane="junctionEast_1" arrivalPos="492.80" arrivalSpeed="7.65" duration="171.00" routeLength="994.90" waitingTime="2.00" waitingCount="1" stopTime="0.00" timeLoss="50.87" rerouteNo="0" devices="tripinfo_westEastTop.11 ssm_westEastTop.11" vType="carCustom" speedFactor="1.12" vaporized=""/>
    <tripinfo id="southEast.10" depart="72.00" departLane="southJunction_0" departPos="5.10" departSpeed="5.52" departDelay="1.15" arrival="225.00" arrivalLane="junctionEast_0" arrivalPos="492.80" arrivalSpeed="7.37" duration="153.00" routeLength="989.53" waitingTime="0.00" waitingCount="0" stopTime="0.00" timeLoss="33.50" rerouteNo="0" devices="tripinfo_southEast.10 ssm_southEast.10" vType="carCustom" speedFactor="0.97" vaporized=""/>
    <tripinfo id="westEastTop.12" depart="54.00" departLane="westJunction_1" departPos="5.10" departSpeed="3.88" departDelay="21.70" arrival="226.00" arrivalLane="junctionEast_1" arrivalPos="492.80" arrivalSpeed="7.38" duration="172.00" routeLength="994.90" waitingTime="1.00" waitingCount="1" stopTime="0.00" timeLoss="51.88" rerouteNo="0" devices="tripinfo_westEastTop.12 ssm_westEastTop.12" vType="carCustom" speedFactor="1.15" vaporized=""/>
    <tripinfo id="southNorth.6" depart="80.00" departLane="southJunction_1" departPos="5.10" departSpeed="8.10" departDelay="0.65" arrival="229.00" arrivalLane="junctionNorth_0" arrivalPos="492.80" arrivalSpeed="8.03" duration="149.00" routeLength="995.01" waitingTime="9.00" waitingCount="1" stopTime="0.00" timeLoss="28.86" rerouteNo="0" devices="tripinfo_southNorth.6 ssm_southNorth.6" vType="carCustom" speedFactor="1.04" vaporized=""/>
    <tripinfo id="westEastBottom0.10" depart="75.00" departLane="westJunction_0" departPos="5.10" departSpeed="7.28" departDelay="0.12" arrival="230.00" arrivalLane="junctionEast_0" arrivalPos="492.80" arrivalSpeed="8.14" duration="155.00" routeLength="994.90" waitingTime="4.00" waitingCount="1" stopTime="0.00" timeLoss="35.54" rerouteNo="0" devices="tripinfo_westEastBottom0.10 ssm_westEastBottom0.10" vType="carCustom" speedFactor="0.94" vaporized=""/>
    <tripinfo id="westEastTop.13" depart="59.00" departLane="westJunction_1" departPos="5.10" departSpeed="2.56" departDelay="10.05" arrival="231.00" arrivalLane="junctionEast_1" arrivalPos="492.80" arrivalSpeed="7.98" duration="172.00" routeLength="994.90" waitingTime="0.00" waitingCount="0" stopTime="0.00" timeLoss="52.36" rerouteNo="0" devices="tripinfo_westEastTop.13 ssm_westEastTop.13" vType="carCustom" speedFactor="0.99" vaporized=""/>
    <tripinfo id="southEast.11" depart="83.00" departLane="southJunction_0" departPos="5.10" departSpeed="6.07" departDelay="0.43" arrival="236.00" arrivalLane="junctionEast_0" arrivalPos="492.80" arrivalSpeed="7.96" duration="153.00" routeLength="989.53" waitingTime="2.00" waitingCount="1" stopTime="0.00" timeLoss="33.54" rerouteNo="0" devices="tripinfo_southEast.11 ssm_southEast.11" vType="carCustom" speedFactor="1.01" vaporized=""/>
    <tripinfo id="westEastTop.14" depart="64.00" departLane="westJunction_1" departPos="5.10" departSpeed="2.79" departDelay="10.67" arrival="237.00" arrivalLane="junctionEast_1" arrivalPos="492.80" arrivalSpeed="7.63" duration="173.00" routeLength="994.90" waitingTime="4.00" waitingCount="1" stopTime="0.00" timeLoss="53.54" rerouteNo="0" devices="tripinfo_westEastTop.14 ssm_westEastTop.14" vType="carCustom" speedFactor="0.95" vaporized=""/>
    <tripinfo id="southNorth.7" depart="91.00" departLane="southJunction_1" departPos="5.10" departSpeed="7.38" departDelay="0.12" arrival="238.00" arrivalLane="junctionNorth_0" arrivalPos="492.80" arrivalSpeed="8.29" duration="147.00" routeLength="995.01" waitingTime="7.00" waitingCount="2" stopTime="0.00" timeLoss="26.74" rerouteNo="0" devices="tripinfo_southNorth.7 ssm_southNorth.7" vType="carCustom" speedFactor="1.04" vaporized=""/>
    <tripinfo id="southEast.12" depart="95.00" departLane="southJunction_0" departPos="5.10" departSpeed="8.14" departDelay="0.64" arrival="242.00" arrivalLane="junctionEast_0" arrivalPos="492.80" arrivalSpeed="8.11" duration="147.00" routeLength="989.53" waitingTime="0.00" waitingCount="0" stopTime="0.00" timeLoss="26.82" rerouteNo="0" devices="tripinfo_southEast.12 ssm_southEast.12" vType="carCustom" speedFactor="0.87" vaporized=""/>
    <tripinfo id="westEastTop.15" depart="68.00" departLane="westJunction_1" departPos="5.10" departSpeed="3.13" departDelay="14.02" arrival="243.00" arrivalLane="junctionEast_1" arrivalPos="492.80" arrivalSpeed="7.27" duration="175.00" routeLength="994.90" waitingTime="1.00" waitingCount="1" stopTime="0.00" timeLoss="55.48" rerouteNo="0" devices="tripinfo_westEastTop.15 ssm_westEastTop.15" vType="carCustom" speedFactor="1.08" vaporized=""/>
    <tripinfo id="westEastBottom0.11" depart="97.00" departLane="westJunction_0" departPos="5.10" departSpeed="6.78" departDelay="0.08" arrival="247.00" arrivalLane="junctionEast_0" arrivalPos="492.80" arrivalSpeed="8.14" duration="150.00" routeLength="994.90" waitingTime="3.00" waitingCount="1" stopTime="0.00" timeLoss="30.10" rerouteNo="0" devices="tripinfo_westEastBottom0.11 ssm_westEastBottom0.11" vType="carCustom" speedFactor="1.08" vaporized=""/>
    <tripinfo id="southNorth.8" depart="95.00" departLane="southJunction_1" departPos="5.10" departSpeed="7.83" departDelay="0.82" arrival="248.00" arrivalLane="junctionNorth_0" arrivalPos="492.80" arrivalSpeed="8.05" duration="153.00" routeLength="995.01" waitingTime="6.00" waitingCount="2" stopTime="0.00" timeLoss="33.41" rerouteNo="0" devices="tripinfo_southNorth.8 ssm_southNorth.8" vType="carCustom" speedFactor="0.87" vaporized=""/>
    <tripinfo id="westEastBottom0.19" depart="181.00" departLane="westJunction_0" departPos="5.10" departSpeed="7.69" departDelay="0.42" arrival="248.00" arrivalLane="junctionEast_0" arrivalPos="492.80" arrivalSpeed="4.99" duration="67.00" routeLength="994.90" waitingTime="0.00" waitingCount="0" stopTime="0.00" timeLoss="6.70" rerouteNo="0" devices="tripinfo_westEastBottom0.19 ssm_westEastBottom0.19" vType="carCustom" speedFactor="0.97" vaporized="teleport"/>
    <tripinfo id="westEastTop.16" depart="74.00" departLane="westJunction_1" departPos="5.10" departSpeed="2.27" departDelay="17.63" arrival="249.00" arrivalLane="junctionEast_0" arrivalPos="492.80" arrivalSpeed="7.36" duration="175.00" routeLength="994.90" waitingTime="1.00" waitingCount="1" stopTime="0.00" timeLoss="55.26" rerouteNo="0" devices="tripinfo_westEastTop.16 ssm_westEastTop.16" vType="carCustom" speedFactor="0.97" vaporized=""/>
    <tripinfo id="westEastBottom0.12" depart="108.00" departLane="westJunction_0" departPos="5.10" departSpeed="7.55" departDelay="0.28" arrival="253.00" arrivalLane="junctionEast_0" arrivalPos="492.80" arrivalSpeed="8.27" duration="145.00" routeLength="994.90" waitingTime="1.00" waitingCount="1" stopTime="0.00" timeLoss="24.77" rerouteNo="0" devices="tripinfo_westEastBottom0.12 ssm_westEastBottom0.12" vType="carCustom" speedFactor="0.92" vaporized=""/>
    <tripinfo id="westEastBottom0.13" depart="111.00" departLane="westJunction_0" departPos="5.10" departSpeed="7.34" departDelay="3.17" arrival="255.00" arrivalLane="junctionEast_0" arrivalPos="492.80" arrivalSpeed="7.13" duration="144.00" routeLength="994.90" waitingTime="3.00" waitingCount="1" stopTime="0.00" timeLoss="23.89" rerouteNo="0" devices="tripinfo_westEastBottom0.13 ssm_westEastBottom0.13" vType="carCustom" speedFactor="1.14" vaporized=""/>
    <tripinfo id="southNorth.9" depart="98.00" departLane="southJunction_1" departPos="5.10" departSpeed="6.85" departDelay="1.66" arrival="258.00" arrivalLane="junctionNorth_0" arrivalPos="492.80" arrivalSpeed="7.64" duration="160.00" routeLength="995.01" waitingTime="8.00" waitingCount="2" stopTime="0.00" timeLoss="40.43" rerouteNo="0" devices="tripinfo_southNorth.9 ssm_southNorth.9" vType="carCustom" speedFactor="0.99" vaporized=""/>
    <tripinfo id="southEast.13" depart="119.00" departLane="southJunction_0" departPos="5.10" departSpeed="7.52" departDelay="0.19" arrival="259.00" arrivalLane="junctionEast_0" arrivalPos="492.80" arrivalSpeed="8.28" duration="140.00" routeLength="989.53" waitingTime="0.00" waitingCount="0" stopTime="0.00" timeLoss="20.06" rerouteNo="0" devices="tripinfo_southEast.13 ssm_southEast.13" vType="carCustom" speedFactor="0.96" vaporized=""/>
    <tripinfo id="westEastTop.18" depart="89.00" departLane="westJunction_1" departPos="5.10" departSpeed="3.43" departDelay="0.28" arrival="263.00" arrivalLane="junctionEast_1" arrivalPos="492.80" arrivalSpeed="7.29" duration="174.00" routeLength="994.90" waitingTime="5.00" waitingCount="1" stopTime="0.00" timeLoss="54.57" rerouteNo="0" devices="tripinfo_westEastTop.18 ssm_westEastTop.18" vType="carCustom" speedFactor="1.14" vaporized=""/>
    <tripinfo id="westEastTop.17" depart="81.00" departLane="westJunction_1" departPos="5.10" departSpeed="3.09" departDelay="0.44" arrival="264.00" arrivalLane="junctionEast_0" arrivalPos="492.80" arrivalSpeed="7.28" duration="183.00" routeLength="994.90" waitingTime="4.00" waitingCount="1" stopTime="0.00" timeLoss="63.14" rerouteNo="0" devices="tripinfo_westEastTop.17 ssm_westEastTop.17" vType="carCustom" speedFactor="1.09" vaporized=""/>
    <tripinfo id="southNorth.10" depart="102.00" departLane="southJunction_1" departPos="5.10" departSpeed="5.59" departDelay="0.71" arrival="268.00" arrivalLane="junctionNorth_0" arrivalPos="492.80" arrivalSpeed="7.76" duration="166.00" routeLength="995.01" waitingTime="7.00" waitingCount="3" stopTime="0.00" timeLoss="45.76" rerouteNo="0" devices="tripinfo_southNorth.10 ssm_southNorth.10" vType="carCustom" speedFactor="0.96" vaporized=""/>
    <tripinfo id="westEastBottom0.14" depart="125.00" departLane="westJunction_0" departPos="5.10" departSpeed="6.81" departDelay="0.41" arrival="269.00" arrivalLane="junctionEast_0" arrivalPos="492.80" arrivalSpeed="7.11" duration="144.00" routeLength="994.90" waitingTime="3.00" waitingCount="1" stopTime="0.00" timeLoss="24.39" rerouteNo="0" devices="tripinfo_westEastBottom0.14 ssm_westEastBottom0.14" vType="carCustom" speedFactor="0.80" vaporized=""/>
    <tripinfo id="westEastTop.19" depart="92.00" departLane="westJunction_1" departPos="5.10" departSpeed="5.35" departDelay="3.03" arrival="274.00" arrivalLane="junctionEast_0" arrivalPos="492.80" arrivalSpeed="8.26" duration="182.00" routeLength="994.90" waitingTime="6.00" waitingCount="2" stopTime="0.00" timeLoss="62.09" rerouteNo="0" devices="tripinfo_westEastTop.19 ssm_westEastTop.19" vType="carCustom" speedFactor="0.90" vaporized=""/>
    <tripinfo id="southEast.14" depart="141.00" departLane="southJunction_0" departPos="5.10" departSpeed="7.97" departDelay="0.24" arrival="275.00" arrivalLane="junctionEast_1" arrivalPos="492.80" arrivalSpeed="8.30" duration="134.00" routeLength="989.53" waitingTime="0.00" waitingCount="0" stopTime="0.00" timeLoss="14.03" rerouteNo="0" devices="tripinfo_southEast.14 ssm_southEast.14" vType="carCustom" speedFactor="0.91" vaporized=""/>
    <tripinfo id="southNorth.11" depart="105.00" departLane="southJunction_1" departPos="5.10" departSpeed="4.59" departDelay="0.79" arrival="278.00" arrivalLane="junctionNorth_0" arrivalPos="492.80" arrivalSpeed="7.59" duration="173.00" routeLength="995.01" waitingTime="8.00" waitingCount="3" stopTime="0.00" timeLoss="52.93" rerouteNo="0" devices="tripinfo_southNorth.11 ssm_southNorth.11" vType="carCustom" speedFactor="1.06" vaporized=""/>