<?xml version="1.0" encoding="UTF-8"?>

<!-- generated on 2025-04-29 09:25:58 by Eclipse SUMO sumo Version 1.20.0
<configuration xmlns:xsi="http://www.w3.org/2001/XMLSchema-instance" xsi:noNamespaceSchemaLocation="http://sumo.dlr.de/xsd/sumoConfiguration.xsd">

    <input>
        <net-file value="nets/2lane_unprotected_right/2lane_unprotected_right.net.xml"/>
        <route-files value="nets/2lane_unprotected_right/2lane_unprotected_right.rou.xml"/>
    </input>

    <output>
        <tripinfo-output value="traces/transs50f0.5_s50_f1_random/0210_tripinfo.xml"/>
        <collision-output value="traces/transs50f0.5_s50_f1_random/0210_collisions.xml"/>
        <statistic-output value="traces/transs50f0.5_s50_f1_random/0210_statistics.xml"/>
    </output>

    <processing>
        <collision.action value="teleport"/>
        <collision.check-junctions value="true"/>
        <time-to-teleport value="-1"/>
        <waiting-time-memory value="1000"/>
        <max-depart-delay value="-1"/>
        <default.speeddev value="0.1"/>
    </processing>

    <report>
        <no-warnings value="true"/>
    </report>

    <ssm_device>
        <device.ssm.probability value="1.0"/>
        <device.ssm.measures value="BR"/>
        <device.ssm.file value="/Users/finn/Code/CausalKnowledgeTransfer-4-SafeRL/traces/transs50f0.5_s50_f1_random/0210_ssm.xml"/>
    </ssm_device>

    <traci_server>
        <remote-port value="65002"/>
    </traci_server>

    <random_number>
        <random value="true"/>
    </random_number>

</configuration>
-->

<tripinfos xmlns:xsi="http://www.w3.org/2001/XMLSchema-instance" xsi:noNamespaceSchemaLocation="http://sumo.dlr.de/xsd/tripinfo_file.xsd">
    <tripinfo id="westEastTop.0" depart="1.00" departLane="westJunction_1" departPos="5.10" departSpeed="27.78" departDelay="0.65" arrival="40.00" arrivalLane="junctionEast_1" arrivalPos="492.80" arrivalSpeed="26.59" duration="39.00" routeLength="994.90" waitingTime="0.00" waitingCount="0" stopTime="0.00" timeLoss="2.65" rerouteNo="0" devices="tripinfo_westEastTop.0 ssm_westEastTop.0" vType="carCustom" speedFactor="0.95" vaporized=""/>
    <tripinfo id="westEastTop.1" depart="4.00" departLane="westJunction_1" departPos="5.10" departSpeed="26.57" departDelay="0.41" arrival="49.00" arrivalLane="junctionEast_1" arrivalPos="492.80" arrivalSpeed="27.06" duration="45.00" routeLength="994.90" waitingTime="0.00" waitingCount="0" stopTime="0.00" timeLoss="8.71" rerouteNo="0" devices="tripinfo_westEastTop.1 ssm_westEastTop.1" vType="carCustom" speedFactor="1.05" vaporized=""/>
    <tripinfo id="westEastBottom0.0" depart="12.00" departLane="westJunction_0" departPos="5.10" departSpeed="27.78" departDelay="0.59" arrival="58.00" arrivalLane="junctionEast_1" arrivalPos="492.80" arrivalSpeed="26.55" duration="46.00" routeLength="994.90" waitingTime="0.00" waitingCount="0" stopTime="0.00" timeLoss="9.38" rerouteNo="0" devices="tripinfo_westEastBottom0.0 ssm_westEastBottom0.0" vType="carCustom" speedFactor="0.85" vaporized=""/>
    <tripinfo id="southNorth.0" depart="13.00" departLane="southJunction_1" departPos="5.10" departSpeed="27.78" departDelay="0.68" arrival="64.00" arrivalLane="junctionNorth_0" arrivalPos="492.80" arrivalSpeed="27.67" duration="51.00" routeLength="995.01" waitingTime="2.00" waitingCount="1" stopTime="0.00" timeLoss="14.77" rerouteNo="0" devices="tripinfo_southNorth.0 ssm_southNorth.0" vType="carCustom" speedFactor="0.97" vaporized=""/>
    <tripinfo id="westEastTop.2" depart="19.00" departLane="westJunction_1" departPos="5.10" departSpeed="18.03" departDelay="0.26" arrival="67.00" arrivalLane="junctionEast_1" arrivalPos="492.80" arrivalSpeed="26.66" duration="48.00" routeLength="994.90" waitingTime="0.00" waitingCount="0" stopTime="0.00" timeLoss="11.78" rerouteNo="0" devices="tripinfo_westEastTop.2 ssm_westEastTop.2" vType="carCustom" speedFactor="0.97" vaporized=""/>
    <tripinfo id="westEastBottom0.1" depart="23.00" departLane="westJunction_0" departPos="5.10" departSpeed="27.78" departDelay="0.22" arrival="68.00" arrivalLane="junctionEast_0" arrivalPos="492.80" arrivalSpeed="26.53" duration="45.00" routeLength="994.90" waitingTime="0.00" waitingCount="0" stopTime="0.00" timeLoss="8.55" rerouteNo="0" devices="tripinfo_westEastBottom0.1 ssm_westEastBottom0.1" vType="carCustom" speedFactor="1.19" vaporized=""/>
    <tripinfo id="southNorth.1" depart="21.00" departLane="southJunction_1" departPos="5.10" departSpeed="27.36" departDelay="0.88" arrival="73.00" arrivalLane="junctionNorth_0" arrivalPos="492.80" arrivalSpeed="27.24" duration="52.00" routeLength="995.01" waitingTime="0.00" waitingCount="0" stopTime="0.00" timeLoss="16.00" rerouteNo="0" devices="tripinfo_southNorth.1 ssm_southNorth.1" vType="carCustom" speedFactor="0.83" vaporized=""/>
    <tripinfo id="southEast.0" depart="24.00" departLane="southJunction_0" departPos="5.10" departSpeed="27.78" departDelay="0.53" arrival="76.00" arrivalLane="junctionEast_0" arrivalPos="492.80" arrivalSpeed="26.68" duration="52.00" routeLength="989.53" waitingTime="0.00" waitingCount="0" stopTime="0.00" timeLoss="14.66" rerouteNo="0" devices="tripinfo_southEast.0 ssm_southEast.0" vType="carCustom" speedFactor="0.85" vaporized=""/>
    <tripinfo id="westEastTop.3" depart="21.00" departLane="westJunction_1" departPos="5.10" departSpeed="18.42" departDelay="0.69" arrival="77.00" arrivalLane="junctionEast_1" arrivalPos="492.80" arrivalSpeed="27.56" duration="56.00" routeLength="994.90" waitingTime="0.00" waitingCount="0" stopTime="0.00" timeLoss="19.76" rerouteNo="0" devices="tripinfo_westEastTop.3 ssm_westEastTop.3" vType="carCustom" speedFactor="0.97" vaporized=""/>
    <tripinfo id="westEastBottom0.2" depart="31.00" departLane="westJunction_0" departPos="5.10" departSpeed="19.50" departDelay="0.89" arrival="85.00" arrivalLane="junctionEast_1" arrivalPos="492.80" arrivalSpeed="27.05" duration="54.00" routeLength="994.90" waitingTime="0.00" waitingCount="0" stopTime="0.00" timeLoss="17.39" rerouteNo="0" devices="tripinfo_westEastBottom0.2 ssm_westEastBottom0.2" vType="carCustom" speedFactor="0.91" vaporized=""/>
    <tripinfo id="southEast.1" depart="29.00" departLane="southJunction_0" departPos="5.10" departSpeed="24.44" departDelay="0.95" arrival="86.00" arrivalLane="junctionEast_0" arrivalPos="492.80" arrivalSpeed="27.37" duration="57.00" routeLength="989.53" waitingTime="0.00" waitingCount="0" stopTime="0.00" timeLoss="20.17" rerouteNo="0" devices="tripinfo_southEast.1 ssm_southEast.1" vType="carCustom" speedFactor="0.96" vaporized=""/>
    <tripinfo id="southNorth.2" depart="30.00" departLane="southJunction_1" departPos="5.10" departSpeed="21.45" departDelay="0.09" arrival="90.00" arrivalLane="junctionNorth_0" arrivalPos="492.80" arrivalSpeed="26.76" duration="60.00" routeLength="995.01" waitingTime="3.00" waitingCount="1" stopTime="0.00" timeLoss="23.49" rerouteNo="0" devices="tripinfo_southNorth.2 ssm_southNorth.2" vType="carCustom" speedFactor="1.07" vaporized=""/>
    <tripinfo id="westEastTop.4" depart="25.00" departLane="westJunction_1" departPos="5.10" departSpeed="11.47" departDelay="0.15" arrival="94.00" arrivalLane="junctionEast_1" arrivalPos="492.80" arrivalSpeed="26.63" duration="69.00" routeLength="994.90" waitingTime="0.00" waitingCount="0" stopTime="0.00" timeLoss="32.69" rerouteNo="0" devices="tripinfo_westEastTop.4 ssm_westEastTop.4" vType="carCustom" speedFactor="1.06" vaporized=""/>
    <tripinfo id="southEast.2" depart="31.00" departLane="southJunction_0" departPos="5.10" departSpeed="20.87" departDelay="2.61" arrival="94.00" arrivalLane="junctionEast_0" arrivalPos="492.80" arrivalSpeed="27.05" duration="63.00" routeLength="989.53" waitingTime="0.00" waitingCount="0" stopTime="0.00" timeLoss="26.24" rerouteNo="0" devices="tripinfo_southEast.2 ssm_southEast.2" vType="carCustom" speedFactor="0.98" vaporized=""/>
    <tripinfo id="southNorth.3" depart="42.00" departLane="southJunction_1" departPos="5.10" departSpeed="19.04" departDelay="0.13" arrival="99.00" arrivalLane="junctionNorth_0" arrivalPos="492.80" arrivalSpeed="27.63" duration="57.00" routeLength="995.01" waitingTime="0.00" waitingCount="0" stopTime="0.00" timeLoss="20.96" rerouteNo="0" devices="tripinfo_southNorth.3 ssm_southNorth.3" vType="carCustom" speedFactor="1.06" vaporized=""/>
    <tripinfo id="westEastBottom0.3" depart="33.00" departLane="westJunction_0" departPos="5.10" departSpeed="19.01" departDelay="2.05" arrival="101.00" arrivalLane="junctionEast_0" arrivalPos="492.80" arrivalSpeed="27.16" duration="68.00" routeLength="994.90" waitingTime="0.00" waitingCount="0" stopTime="0.00" timeLoss="31.52" rerouteNo="0" devices="tripinfo_westEastBottom0.3 ssm_westEastBottom0.3" vType="carCustom" speedFactor="1.05" vaporized=""/>
    <tripinfo id="westEastTop.5" depart="27.00" departLane="westJunction_1" departPos="5.10" departSpeed="9.35" departDelay="0.27" arrival="105.00" arrivalLane="junctionEast_1" arrivalPos="492.80" arrivalSpeed="26.99" duration="78.00" routeLength="994.90" waitingTime="2.00" waitingCount="1" stopTime="0.00" timeLoss="41.29" rerouteNo="0" devices="tripinfo_westEastTop.5 ssm_westEastTop.5" vType="carCustom" speedFactor="0.92" vaporized=""/>
    <tripinfo id="southEast.3" depart="49.00" departLane="southJunction_0" departPos="5.10" departSpeed="14.15" departDelay="0.07" arrival="108.00" arrivalLane="junctionEast_0" arrivalPos="492.80" arrivalSpeed="26.67" duration="59.00" routeLength="989.53" waitingTime="0.00" waitingCount="0" stopTime="0.00" timeLoss="20.25" rerouteNo="0" devices="tripinfo_southEast.3 ssm_southEast.3" vType="carCustom" speedFactor="0.92" vaporized=""/>
    <tripinfo id="southNorth.4" depart="44.00" departLane="southJunction_1" departPos="5.10" departSpeed="22.07" departDelay="1.25" arrival="110.00" arrivalLane="junctionNorth_0" arrivalPos="492.80" arrivalSpeed="27.43" duration="66.00" routeLength="995.01" waitingTime="1.00" waitingCount="1" stopTime="0.00" timeLoss="29.65" rerouteNo="0" devices="tripinfo_southNorth.4 ssm_southNorth.4" vType="carCustom" speedFactor="1.16" vaporized=""/>
    <tripinfo id="westEastBottom0.4" depart="43.00" departLane="westJunction_0" departPos="5.10" departSpeed="13.18" departDelay="0.69" arrival="114.00" arrivalLane="junctionEast_0" arrivalPos="492.80" arrivalSpeed="26.94" duration="71.00" routeLength="994.90" waitingTime="0.00" waitingCount="0" stopTime="0.00" timeLoss="34.67" rerouteNo="0" devices="tripinfo_westEastBottom0.4 ssm_westEastBottom0.4" vType="carCustom" speedFactor="1.10" vaporized=""/>
    <tripinfo id="westEastTop.6" depart="31.00" departLane="westJunction_1" departPos="5.10" departSpeed="6.97" departDelay="0.48" arrival="115.00" arrivalLane="junctionEast_1" arrivalPos="492.80" arrivalSpeed="27.24" duration="84.00" routeLength="994.90" waitingTime="3.00" waitingCount="1" stopTime="0.00" timeLoss="47.60" rerouteNo="0" devices="tripinfo_westEastTop.6 ssm_westEastTop.6" vType="carCustom" speedFactor="1.04" vaporized=""/>
    <tripinfo id="westEastBottom0.5" depart="46.00" departLane="westJunction_0" departPos="5.10" departSpeed="15.41" departDelay="0.36" arrival="120.00" arrivalLane="junctionEast_0" arrivalPos="492.80" arrivalSpeed="26.88" duration="74.00" routeLength="994.90" waitingTime="1.00" waitingCount="1" stopTime="0.00" timeLoss="38.16" rerouteNo="0" devices="tripinfo_westEastBottom0.5 ssm_westEastBottom0.5" vType="carCustom" speedFactor="1.01" vaporized=""/>
    <tripinfo id="southNorth.5" depart="53.00" departLane="southJunction_1" departPos="5.10" departSpeed="14.82" departDelay="0.63" arrival="120.00" arrivalLane="junctionNorth_0" arrivalPos="492.80" arrivalSpeed="26.91" duration="67.00" routeLength="995.01" waitingTime="2.00" waitingCount="1" stopTime="0.00" timeLoss="30.41" rerouteNo="0" devices="tripinfo_southNorth.5 ssm_southNorth.5" vType="carCustom" speedFactor="0.98" vaporized=""/>
    <tripinfo id="westEastTop.7" depart="36.00" departLane="westJunction_1" departPos="5.10" departSpeed="7.72" departDelay="0.67" arrival="125.00" arrivalLane="junctionEast_1" arrivalPos="492.80" arrivalSpeed="27.29" duration="89.00" routeLength="994.90" waitingTime="4.00" waitingCount="1" stopTime="0.00" timeLoss="53.01" rerouteNo="0" devices="tripinfo_westEastTop.7 ssm_westEastTop.7" vType="carCustom" speedFactor="0.93" vaporized=""/>
    <tripinfo id="westEastBottom0.6" depart="58.00" departLane="westJunction_0" departPos="5.10" departSpeed="14.28" departDelay="0.40" arrival="128.00" arrivalLane="junctionEast_0" arrivalPos="492.80" arrivalSpeed="27.13" duration="70.00" routeLength="994.90" waitingTime="2.00" waitingCount="1" stopTime="0.00" timeLoss="33.42" rerouteNo="0" devices="tripinfo_westEastBottom0.6 ssm_westEastBottom0.6" vType="carCustom" speedFactor="1.10" vaporized=""/>
    <tripinfo id="southNorth.6" depart="64.00" departLane="southJunction_1" departPos="5.10" departSpeed="16.37" departDelay="0.94" arrival="130.00" arrivalLane="junctionNorth_0" arrivalPos="492.80" arrivalSpeed="26.75" duration="66.00" routeLength="995.01" waitingTime="3.00" waitingCount="1" stopTime="0.00" timeLoss="29.63" rerouteNo="0" devices="tripinfo_southNorth.6 ssm_southNorth.6" vType="carCustom" speedFactor="1.12" vaporized=""/>
    <tripinfo id="westEastTop.8" depart="51.00" departLane="westJunction_1" departPos="5.10" departSpeed="9.69" departDelay="0.39" arrival="135.00" arrivalLane="junctionEast_1" arrivalPos="492.80" arrivalSpeed="26.74" duration="84.00" routeLength="994.90" waitingTime="2.00" waitingCount="1" stopTime="0.00" timeLoss="47.48" rerouteNo="0" devices="tripinfo_westEastTop.8 ssm_westEastTop.8" vType="carCustom" speedFactor="0.94" vaporized=""/>
    <tripinfo id="southEast.4" depart="70.00" departLane="southJunction_0" departPos="5.10" departSpeed="15.66" departDelay="0.97" arrival="135.00" arrivalLane="junctionEast_0" arrivalPos="492.80" arrivalSpeed="26.56" duration="65.00" routeLength="989.53" waitingTime="4.00" waitingCount="1" stopTime="0.00" timeLoss="27.61" rerouteNo="0" devices="tripinfo_southEast.4 ssm_southEast.4" vType="carCustom" speedFactor="1.01" vaporized=""/>
    <tripinfo id="southNorth.7" depart="66.00" departLane="southJunction_1" departPos="5.10" departSpeed="18.50" departDelay="1.67" arrival="140.00" arrivalLane="junctionNorth_0" arrivalPos="492.80" arrivalSpeed="26.50" duration="74.00" routeLength="995.01" waitingTime="3.00" waitingCount="1" stopTime="0.00" timeLoss="37.86" rerouteNo="0" devices="tripinfo_southNorth.7 ssm_southNorth.7" vType="carCustom" speedFactor="1.01" vaporized=""/>
    <tripinfo id="southEast.5" depart="72.00" departLane="southJunction_0" departPos="5.10" departSpeed="16.85" departDelay="1.16" arrival="141.00" arrivalLane="junctionEast_0" arrivalPos="492.80" arrivalSpeed="26.74" duration="69.00" routeLength="989.53" waitingTime="0.00" waitingCount="0" stopTime="0.00" timeLoss="32.50" rerouteNo="0" devices="tripinfo_southEast.5 ssm_southEast.5" vType="carCustom" speedFactor="0.92" vaporized=""/>
    <tripinfo id="westEastBottom0.7" depart="83.00" departLane="westJunction_0" departPos="5.10" departSpeed="12.52" departDelay="0.71" arrival="142.00" arrivalLane="junctionEast_1" arrivalPos="492.80" arrivalSpeed="27.42" duration="59.00" routeLength="994.90" waitingTime="0.00" waitingCount="0" stopTime="0.00" timeLoss="22.53" rerouteNo="0" devices="tripinfo_westEastBottom0.7 ssm_westEastBottom0.7" vType="carCustom" speedFactor="0.90" vaporized=""/>
    <tripinfo id="southEast.6" depart="80.00" departLane="southJunction_0" departPos="5.10" departSpeed="11.89" departDelay="0.07" arrival="148.00" arrivalLane="junctionEast_0" arrivalPos="492.80" arrivalSpeed="26.65" duration="68.00" routeLength="989.53" waitingTime="0.00" waitingCount="0" stopTime="0.00" timeLoss="31.05" rerouteNo="0" devices="tripinfo_southEast.6 ssm_southEast.6" vType="carCustom" speedFactor="1.04" vaporized=""/>
    <tripinfo id="westEastTop.9" depart="53.00" departLane="westJunction_1" departPos="5.10" departSpeed="13.13" departDelay="1.96" arrival="149.00" arrivalLane="junctionEast_1" arrivalPos="492.80" arrivalSpeed="27.44" duration="96.00" routeLength="994.90" waitingTime="5.00" waitingCount="2" stopTime="0.00" timeLoss="59.47" rerouteNo="0" devices="tripinfo_westEastTop.9 ssm_westEastTop.9" vType="carCustom" speedFactor="0.80" vaporized=""/>
    <tripinfo id="southNorth.8" depart="68.00" departLane="southJunction_1" departPos="5.10" departSpeed="14.24" departDelay="0.20" arrival="150.00" arrivalLane="junctionNorth_0" arrivalPos="492.80" arrivalSpeed="27.61" duration="82.00" routeLength="995.01" waitingTime="5.00" waitingCount="1" stopTime="0.00" timeLoss="45.63" rerouteNo="0" devices="tripinfo_southNorth.8 ssm_southNorth.8" vType="carCustom" speedFactor="1.06" vaporized=""/>
    <tripinfo id="westEastBottom0.8" depart="92.00" departLane="westJunction_0" departPos="5.10" departSpeed="17.28" departDelay="0.92" arrival="154.00" arrivalLane="junctionEast_0" arrivalPos="492.80" arrivalSpeed="27.11" duration="62.00" routeLength="994.90" waitingTime="0.00" waitingCount="0" stopTime="0.00" timeLoss="25.85" rerouteNo="0" devices="tripinfo_westEastBottom0.8 ssm_westEastBottom0.8" vType="carCustom" speedFactor="0.98" vaporized=""/>
    <tripinfo id="westEastTop.10" depart="73.00" departLane="westJunction_1" departPos="5.10" departSpeed="11.50" departDelay="0.47" arrival="157.00" arrivalLane="junctionEast_1" arrivalPos="492.80" arrivalSpeed="27.47" duration="84.00" routeLength="994.90" waitingTime="4.00" waitingCount="1" stopTime="0.00" timeLoss="47.49" rerouteNo="0" devices="tripinfo_westEastTop.10 ssm_westEastTop.10" vType="carCustom" speedFactor="0.99" vaporized=""/>
    <tripinfo id="southNorth.9" depart="73.00" departLane="southJunction_1" departPos="5.10" departSpeed="8.40" departDelay="0.72" arrival="160.00" arrivalLane="junctionNorth_0" arrivalPos="492.80" arrivalSpeed="26.60" duration="87.00" routeLength="995.01" waitingTime="5.00" waitingCount="1" stopTime="0.00" timeLoss="50.57" rerouteNo="0" devices="tripinfo_southNorth.9 ssm_southNorth.9" vType="carCustom" speedFactor="0.81" vaporized=""/>
    <tripinfo id="southEast.7" depart="87.00" departLane="southJunction_0" departPos="5.10" departSpeed="13.44" departDelay="0.80" arrival="160.00" arrivalLane="junctionEast_0" arrivalPos="492.80" arrivalSpeed="27.32" duration="73.00" routeLength="989.53" waitingTime="0.00" waitingCount="0" stopTime="0.00" timeLoss="36.52" rerouteNo="0" devices="tripinfo_southEast.7 ssm_southEast.7" vType="carCustom" speedFactor="1.08" vaporized=""/>
    <tripinfo id="westEastTop.11" depart="75.00" departLane="westJunction_1" departPos="5.10" departSpeed="15.59" departDelay="2.28" arrival="166.00" arrivalLane="junctionEast_1" arrivalPos="492.80" arrivalSpeed="26.91" duration="91.00" routeLength="994.90" waitingTime="8.00" waitingCount="2" stopTime="0.00" timeLoss="54.23" rerouteNo="0" devices="tripinfo_westEastTop.11 ssm_westEastTop.11" vType="carCustom" speedFactor="1.11" vaporized=""/>
    <tripinfo id="westEastBottom0.9" depart="104.00" departLane="westJunction_0" departPos="5.10" departSpeed="17.82" departDelay="0.27" arrival="166.00" arrivalLane="junctionEast_0" arrivalPos="492.80" arrivalSpeed="26.80" duration="62.00" routeLength="994.90" waitingTime="0.00" waitingCount="0" stopTime="0.00" timeLoss="26.17" rerouteNo="0" devices="tripinfo_westEastBottom0.9 ssm_westEastBottom0.9" vType="carCustom" speedFactor="1.14" vaporized=""/>
    <tripinfo id="southNorth.10" depart="77.00" departLane="southJunction_1" departPos="5.10" departSpeed="8.92" departDelay="0.81" arrival="167.00" arrivalLane="junctionNorth_0" arrivalPos="492.80" arrivalSpeed="26.76" duration="90.00" routeLength="995.01" waitingTime="1.00" waitingCount="1" stopTime="0.00" timeLoss="53.70" rerouteNo="0" devices="tripinfo_southNorth.10 ssm_southNorth.10" vType="carCustom" speedFactor="1.07" vaporized=""/>
    <tripinfo id="southEast.8" depart="93.00" departLane="southJunction_0" departPos="5.10" departSpeed="14.02" departDelay="0.95" arrival="172.00" arrivalLane="junctionEast_0" arrivalPos="492.80" arrivalSpeed="26.56" duration="79.00" routeLength="989.53" waitingTime="0.00" waitingCount="0" stopTime="0.00" timeLoss="41.78" rerouteNo="0" devices="tripinfo_southEast.8 ssm_southEast.8" vType="carCustom" speedFactor="0.93" vaporized=""/>
    <tripinfo id="westEastTop.12" depart="77.00" departLane="westJunction_1" departPos="5.10" departSpeed="11.54" departDelay="0.55" arrival="173.00" arrivalLane="junctionEast_1" arrivalPos="492.80" arrivalSpeed="27.09" duration="96.00" routeLength="994.90" waitingTime="3.00" waitingCount="1" stopTime="0.00" timeLoss="59.26" rerouteNo="0" devices="tripinfo_westEastTop.12 ssm_westEastTop.12" vType="carCustom" speedFactor="1.04" vaporized=""/>
    <tripinfo id="southNorth.11" depart="103.00" departLane="southJunction_1" departPos="5.10" departSpeed="11.13" departDelay="0.27" arrival="174.00" arrivalLane="junctionNorth_0" arrivalPos="492.80" arrivalSpeed="27.42" duration="71.00" routeLength="995.01" waitingTime="1.00" waitingCount="1" stopTime="0.00" timeLoss="34.90" rerouteNo="0" devices="tripinfo_southNorth.11 ssm_southNorth.11" vType="carCustom" speedFactor="0.73" vaporized=""/>
    <tripinfo id="southEast.9" depart="107.00" departLane="southJunction_0" departPos="5.10" departSpeed="13.20" departDelay="0.39" arrival="178.00" arrivalLane="junctionEast_0" arrivalPos="492.80" arrivalSpeed="27.19" duration="71.00" routeLength="989.53" waitingTime="0.00" waitingCount="0" stopTime="0.00" timeLoss="34.37" rerouteNo="0" devices="tripinfo_southEast.9 ssm_southEast.9" vType="carCustom" speedFactor="1.03" vaporized=""/>
    <tripinfo id="westEastBottom0.10" depart="115.00" departLane="westJunction_0" departPos="5.10" departSpeed="18.05" departDelay="0.00" arrival="179.00" arrivalLane="junctionEast_1" arrivalPos="492.80" arrivalSpeed="27.36" duration="64.00" routeLength="994.90" waitingTime="0.00" waitingCount="0" stopTime="0.00" timeLoss="27.80" rerouteNo="0" devices="tripinfo_westEastBottom0.10 ssm_westEastBottom0.10" vType="carCustom" speedFactor="0.97" vaporized=""/>
    <tripinfo id="southNorth.12" depart="126.00" departLane="southJunction_1" departPos="5.10" departSpeed="12.05" departDelay="0.81" arrival="182.00" arrivalLane="junctionNorth_0" arrivalPos="492.80" arrivalSpeed="27.75" duration="56.00" routeLength="995.01" waitingTime="0.00" waitingCount="0" stopTime="0.00" timeLoss="19.76" rerouteNo="0" devices="tripinfo_southNorth.12 ssm_southNorth.12" vType="carCustom" speedFactor="1.01" vaporized=""/>
    <tripinfo id="southEast.13" depart="136.00" departLane="southJunction_0" departPos="5.10" departSpeed="14.72" departDelay="3.72" arrival="183.00" arrivalLane="junctionEast_0" arrivalPos="492.80" arrivalSpeed="5.64" duration="47.00" routeLength="989.53" waitingTime="0.00" waitingCount="0" stopTime="0.00" timeLoss="28.35" rerouteNo="0" devices="tripinfo_southEast.13 ssm_southEast.13" vType="carCustom" speedFactor="1.05" vaporized="teleport"/>
    <tripinfo id="southEast.10" depart="114.00" departLane="southJunction_0" departPos="5.10" departSpeed="17.42" departDelay="0.98" arrival="184.00" arrivalLane="junctionEast_0" arrivalPos="492.80" arrivalSpeed="26.94" duration="70.00" routeLength="989.53" waitingTime="0.00" waitingCount="0" stopTime="0.00" timeLoss="32.54" rerouteNo="0" devices="tripinfo_southEast.10 ssm_southEast.10" vType="carCustom" speedFactor="0.97" vaporized=""/>
    <tripinfo id="westEastTop.13" depart="80.00" departLane="westJunction_1" departPos="5.10" departSpeed="7.49" departDelay="0.64" arrival="185.00" arrivalLane="junctionEast_1" arrivalPos="492.80" arrivalSpeed="27.33" duration="105.00" routeLength="994.90" waitingTime="3.00" waitingCount="2" stopTime="0.00" timeLoss="68.89" rerouteNo="0" devices="tripinfo_westEastTop.13 ssm_westEastTop.13" vType="carCustom" speedFactor="1.05" vaporized=""/>
    <tripinfo id="westEastTop.14" depart="83.00" departLane="westJunction_1" departPos="5.10" departSpeed="6.55" departDelay="1.27" arrival="191.00" arrivalLane="junctionEast_1" arrivalPos="492.80" arrivalSpeed="27.60" duration="108.00" routeLength="994.90" waitingTime="0.00" waitingCount="0" stopTime="0.00" timeLoss="72.01" rerouteNo="0" devices="tripinfo_westEastTop.14 ssm_westEastTop.14" vType="carCustom" speedFactor="1.09" vaporized=""/>
    <tripinfo id="southEast.11" depart="132.00" departLane="southJunction_0" departPos="5.10" departSpeed="14.11" departDelay="0.92" arrival="192.00" arrivalLane="junctionEast_0" arrivalPos="492.80" arrivalSpeed="27.00" duration="60.00" routeLength="989.53" waitingTime="0.00" waitingCount="0" stopTime="0.00" timeLoss="22.52" rerouteNo="0" devices="tripinfo_southEast.11 ssm_southEast.11" vType="carCustom" speedFactor="1.03" vaporized=""/>
    <tripinfo id="westEastTop.15" depart="86.00" departLane="westJunction_1" departPos="5.10" departSpeed="5.19" departDelay="2.57" arrival="197.00" arrivalLane="junctionEast_1" arrivalPos="492.80" arrivalSpeed="26.95" duration="111.00" routeLength="994.90" waitingTime="2.00" waitingCount="1" stopTime="0.00" timeLoss="74.89" rerouteNo="0" devices="tripinfo_westEastTop.15 ssm_westEastTop.15" vType="carCustom" speedFactor="0.84" vaporized=""/>
    <tripinfo id="westEastTop.16" depart="90.00" departLane="westJunction_1" departPos="5.10" departSpeed="4.54" departDelay="5.91" arrival="203.00" arrivalLane="junctionEast_1" arrivalPos="492.80" arrivalSpeed="27.38" duration="113.00" routeLength="994.90" waitingTime="0.00" waitingCount="0" stopTime="0.00" timeLoss="76.76" rerouteNo="0" devices="tripinfo_westEastTop.16 ssm_westEastTop.16" vType="carCustom" speedFactor="1.00" vaporized=""/>
    <tripinfo id="southEast.12" depart="134.00" departLane="southJunction_0" departPos="5.10" departSpeed="18.97" departDelay="2.36" arrival="209.00" arrivalLane="junctionEast_1" arrivalPos="492.80" arrivalSpeed="27.49" duration="75.00" routeLength="989.53" waitingTime="4.00" waitingCount="1" stopTime="0.00" timeLoss="38.09" rerouteNo="0" devices="tripinfo_southEast.12 ssm_southEast.12" vType="carCustom" speedFactor="1.19" vaporized=""/>
    <tripinfo id="westEastBottom0.11" depart="155.00" departLane="westJunction_0" departPos="5.10" departSpeed="27.78" departDelay="0.48" arrival="212.00" arrivalLane="junctionEast_0" arrivalPos="492.80" arrivalSpeed="27.22" duration="57.00" routeLength="994.90" waitingTime="0.00" waitingCount="0" stopTime="0.00" timeLoss="20.24" rerouteNo="0" devices="tripinfo_westEastBottom0.11 ssm_westEastBottom0.11" vType="carCustom" speedFactor="0.94" vaporized=""/>
    <tripinfo id="westEastTop.17" depart="94.00" departLane="westJunction_1" departPos="5.10" departSpeed="5.16" departDelay="5.41" arrival="216.00" arrivalLane="junctionEast_0" arrivalPos="492.80" arrivalSpeed="23.62" duration="122.00" routeLength="994.90" waitingTime="0.00" waitingCount="0" stopTime="0.00" timeLoss="86.10" rerouteNo="0" devices="tripinfo_westEastTop.17 ssm_westEastTop.17" vType="carCustom" speedFactor="1.00" vaporized=""/>
    <tripinfo id="westEastTop.19" depart="110.00" departLane="westJunction_1" departPos="5.10" departSpeed="8.16" departDelay="0.38" arrival="216.00" arrivalLane="junctionEast_1" arrivalPos="492.80" arrivalSpeed="26.56" duration="106.00" routeLength="994.90" waitingTime="0.00" waitingCount="0" stopTime="0.00" timeLoss="69.97" rerouteNo="0" devices="tripinfo_westEastTop.19 ssm_westEastTop.19" vType="carCustom" speedFactor="1.14" vaporized=""/>
    <tripinfo id="southNorth.13" depart="154.00" departLane="southJunction_1" departPos="5.10" departSpeed="7.02" departDelay="0.48" arrival="220.00" arrivalLane="junctionNorth_0" arrivalPos="492.80" arrivalSpeed="26.49" duration="66.00" routeLength="995.01" waitingTime="13.00" waitingCount="1" stopTime="0.00" timeLoss="29.45" rerouteNo="0" devices="tripinfo_southNorth.13 ssm_southNorth.13" vType="carCustom" speedFactor="0.85" vaporized=""/>
    <tripinfo id="westEastTop.18" depart="104.00" departLane="westJunction_1" departPos="5.10" departSpeed="5.26" departDelay="0.59" arrival="221.00" arrivalLane="junctionEast_0" arrivalPos="492.80" arrivalSpeed="25.85" duration="117.00" routeLength="994.90" waitingTime="0.00" waitingCount="0" stopTime="0.00" timeLoss="80.97" rerouteNo="0" devices="tripinfo_westEastTop.18 ssm_westEastTop.18" vType="carCustom" speedFactor="1.09" vaporized=""/>
    <tripinfo id="westEastTop.20" depart="114.00" departLane="westJunction_1" departPos="5.10" departSpeed="8.30" departDelay="0.19" arrival="223.00" arrivalLane="junctionEast_1" arrivalPos="492.80" arrivalSpeed="27.15" duration="109.00" routeLength="994.90" waitingTime="0.00" waitingCount="0" stopTime="0.00" timeLoss="72.34" rerouteNo="0" devices="tripinfo_westEastTop.20 ssm_westEastTop.20" vType="carCustom" speedFactor="1.10" vaporized=""/>
    <tripinfo id="southEast.14" depart="142.00" departLane="southJunction_0" departPos="5.10" departSpeed="9.96" departDelay="0.40" arrival="226.00" arrivalLane="junctionEast_0" arrivalPos="492.80" arrivalSpeed="26.21" duration="84.00" routeLength="989.53" waitingTime="0.00" waitingCount="0" stopTime="0.00" timeLoss="47.72" rerouteNo="0" devices="tripinfo_southEast.14 ssm_southEast.14" vType="carCustom" speedFactor="0.92" vaporized=""/>
    <tripinfo id="westEastTop.21" depart="121.00" departLane="westJunction_1" departPos="5.10" departSpeed="7.52" departDelay="0.96" arrival="229.00" arrivalLane="junctionEast_1" arrivalPos="492.80" arrivalSpeed="27.08" duration="108.00" routeLength="994.90" waitingTime="0.00" waitingCount="0" stopTime="0.00" timeLoss="71.26" rerouteNo="0" devices="tripinfo_westEastTop.21 ssm_westEastTop.21" vType="carCustom" speedFactor="1.04" vaporized=""/>