<?xml version="1.0" encoding="UTF-8"?>

<!-- generated on 2025-04-29 09:36:37 by Eclipse SUMO sumo Version 1.20.0
<configuration xmlns:xsi="http://www.w3.org/2001/XMLSchema-instance" xsi:noNamespaceSchemaLocation="http://sumo.dlr.de/xsd/sumoConfiguration.xsd">

    <input>
        <net-file value="nets/2lane_unprotected_right/2lane_unprotected_right.net.xml"/>
        <route-files value="nets/2lane_unprotected_right/2lane_unprotected_right.rou.xml"/>
    </input>

    <output>
        <tripinfo-output value="traces/transs50f0.5_s50_f1_random/0220_tripinfo.xml"/>
        <collision-output value="traces/transs50f0.5_s50_f1_random/0220_collisions.xml"/>
        <statistic-output value="traces/transs50f0.5_s50_f1_random/0220_statistics.xml"/>
    </output>

    <processing>
        <collision.action value="teleport"/>
        <collision.check-junctions value="true"/>
        <time-to-teleport value="-1"/>
        <waiting-time-memory value="1000"/>
        <max-depart-delay value="-1"/>
        <default.speeddev value="0.1"/>
    </processing>

    <report>
        <no-warnings value="true"/>
    </report>

    <ssm_device>
        <device.ssm.probability value="1.0"/>
        <device.ssm.measures value="BR"/>
        <device.ssm.file value="/Users/finn/Code/CausalKnowledgeTransfer-4-SafeRL/traces/transs50f0.5_s50_f1_random/0220_ssm.xml"/>
    </ssm_device>

    <traci_server>
        <remote-port value="65123"/>
    </traci_server>

    <random_number>
        <random value="true"/>
    </random_number>

</configuration>
-->

<tripinfos xmlns:xsi="http://www.w3.org/2001/XMLSchema-instance" xsi:noNamespaceSchemaLocation="http://sumo.dlr.de/xsd/tripinfo_file.xsd">
    <tripinfo id="westEastTop.0" depart="3.00" departLane="westJunction_1" departPos="5.10" departSpeed="22.22" departDelay="0.94" arrival="54.00" arrivalLane="junctionEast_1" arrivalPos="492.80" arrivalSpeed="21.77" duration="51.00" routeLength="994.90" waitingTime="0.00" waitingCount="0" stopTime="0.00" timeLoss="6.16" rerouteNo="0" devices="tripinfo_westEastTop.0 ssm_westEastTop.0" vType="carCustom" speedFactor="0.98" vaporized=""/>
    <tripinfo id="southNorth.0" depart="5.00" departLane="southJunction_1" departPos="5.10" departSpeed="22.22" departDelay="0.69" arrival="61.00" arrivalLane="junctionNorth_0" arrivalPos="492.80" arrivalSpeed="21.57" duration="56.00" routeLength="995.01" waitingTime="5.00" waitingCount="1" stopTime="0.00" timeLoss="10.77" rerouteNo="0" devices="tripinfo_southNorth.0 ssm_southNorth.0" vType="carCustom" speedFactor="1.11" vaporized=""/>
    <tripinfo id="westEastBottom0.0" depart="12.00" departLane="westJunction_0" departPos="5.10" departSpeed="22.22" departDelay="0.12" arrival="67.00" arrivalLane="junctionEast_1" arrivalPos="492.80" arrivalSpeed="22.18" duration="55.00" routeLength="994.90" waitingTime="0.00" waitingCount="0" stopTime="0.00" timeLoss="9.45" rerouteNo="0" devices="tripinfo_westEastBottom0.0 ssm_westEastBottom0.0" vType="carCustom" speedFactor="1.15" vaporized=""/>
    <tripinfo id="southEast.0" depart="8.00" departLane="southJunction_0" departPos="5.10" departSpeed="22.22" departDelay="0.83" arrival="68.00" arrivalLane="junctionEast_0" arrivalPos="492.80" arrivalSpeed="22.05" duration="60.00" routeLength="989.53" waitingTime="0.00" waitingCount="0" stopTime="0.00" timeLoss="14.32" rerouteNo="0" devices="tripinfo_southEast.0 ssm_southEast.0" vType="carCustom" speedFactor="0.97" vaporized=""/>
    <tripinfo id="southNorth.1" depart="8.00" departLane="southJunction_1" departPos="5.10" departSpeed="21.36" departDelay="0.34" arrival="73.00" arrivalLane="junctionNorth_0" arrivalPos="492.80" arrivalSpeed="20.97" duration="65.00" routeLength="995.01" waitingTime="0.00" waitingCount="0" stopTime="0.00" timeLoss="19.44" rerouteNo="0" devices="tripinfo_southNorth.1 ssm_southNorth.1" vType="carCustom" speedFactor="1.17" vaporized=""/>
    <tripinfo id="westEastTop.1" depart="12.00" departLane="westJunction_1" departPos="5.10" departSpeed="21.01" departDelay="0.34" arrival="78.00" arrivalLane="junctionEast_1" arrivalPos="492.80" arrivalSpeed="21.00" duration="66.00" routeLength="994.90" waitingTime="0.00" waitingCount="0" stopTime="0.00" timeLoss="20.81" rerouteNo="0" devices="tripinfo_westEastTop.1 ssm_westEastTop.1" vType="carCustom" speedFactor="1.05" vaporized=""/>
    <tripinfo id="westEastBottom0.1" depart="23.00" departLane="westJunction_0" departPos="5.10" departSpeed="22.22" departDelay="0.58" arrival="80.00" arrivalLane="junctionEast_0" arrivalPos="492.80" arrivalSpeed="21.11" duration="57.00" routeLength="994.90" waitingTime="0.00" waitingCount="0" stopTime="0.00" timeLoss="11.38" rerouteNo="0" devices="tripinfo_westEastBottom0.1 ssm_westEastBottom0.1" vType="carCustom" speedFactor="1.09" vaporized=""/>
    <tripinfo id="southNorth.2" depart="10.00" departLane="southJunction_1" departPos="5.10" departSpeed="18.80" departDelay="1.64" arrival="84.00" arrivalLane="junctionNorth_0" arrivalPos="492.80" arrivalSpeed="21.48" duration="74.00" routeLength="995.01" waitingTime="0.00" waitingCount="0" stopTime="0.00" timeLoss="28.31" rerouteNo="0" devices="tripinfo_southNorth.2 ssm_southNorth.2" vType="carCustom" speedFactor="1.08" vaporized=""/>
    <tripinfo id="southEast.1" depart="13.00" departLane="southJunction_0" departPos="5.10" departSpeed="21.97" departDelay="0.30" arrival="89.00" arrivalLane="junctionEast_0" arrivalPos="492.80" arrivalSpeed="21.33" duration="76.00" routeLength="989.53" waitingTime="0.00" waitingCount="0" stopTime="0.00" timeLoss="30.45" rerouteNo="0" devices="tripinfo_southEast.1 ssm_southEast.1" vType="carCustom" speedFactor="0.91" vaporized=""/>
    <tripinfo id="westEastTop.2" depart="17.00" departLane="westJunction_1" departPos="5.10" departSpeed="16.86" departDelay="0.43" arrival="89.00" arrivalLane="junctionEast_1" arrivalPos="492.80" arrivalSpeed="21.58" duration="72.00" routeLength="994.90" waitingTime="0.00" waitingCount="0" stopTime="0.00" timeLoss="26.64" rerouteNo="0" devices="tripinfo_westEastTop.2 ssm_westEastTop.2" vType="carCustom" speedFactor="0.96" vaporized=""/>
    <tripinfo id="southNorth.3" depart="12.00" departLane="southJunction_1" departPos="5.10" departSpeed="16.25" departDelay="3.57" arrival="94.00" arrivalLane="junctionNorth_0" arrivalPos="492.80" arrivalSpeed="21.03" duration="82.00" routeLength="995.01" waitingTime="0.00" waitingCount="0" stopTime="0.00" timeLoss="37.06" rerouteNo="0" devices="tripinfo_southNorth.3 ssm_southNorth.3" vType="carCustom" speedFactor="0.88" vaporized=""/>
    <tripinfo id="southEast.2" depart="15.00" departLane="southJunction_0" departPos="5.10" departSpeed="19.41" departDelay="1.94" arrival="99.00" arrivalLane="junctionEast_0" arrivalPos="492.80" arrivalSpeed="21.91" duration="84.00" routeLength="989.53" waitingTime="0.00" waitingCount="0" stopTime="0.00" timeLoss="37.85" rerouteNo="0" devices="tripinfo_southEast.2 ssm_southEast.2" vType="carCustom" speedFactor="0.94" vaporized=""/>
    <tripinfo id="westEastTop.3" depart="19.00" departLane="westJunction_1" departPos="5.10" departSpeed="14.30" departDelay="2.31" arrival="100.00" arrivalLane="junctionEast_1" arrivalPos="492.80" arrivalSpeed="21.74" duration="81.00" routeLength="994.90" waitingTime="0.00" waitingCount="0" stopTime="0.00" timeLoss="35.26" rerouteNo="0" devices="tripinfo_westEastTop.3 ssm_westEastTop.3" vType="carCustom" speedFactor="0.96" vaporized=""/>
    <tripinfo id="southNorth.4" depart="14.00" departLane="southJunction_1" departPos="5.10" departSpeed="13.70" departDelay="2.21" arrival="104.00" arrivalLane="junctionNorth_0" arrivalPos="492.80" arrivalSpeed="21.86" duration="90.00" routeLength="995.01" waitingTime="0.00" waitingCount="0" stopTime="0.00" timeLoss="45.21" rerouteNo="0" devices="tripinfo_southNorth.4 ssm_southNorth.4" vType="carCustom" speedFactor="1.05" vaporized=""/>
    <tripinfo id="westEastBottom0.2" depart="28.00" departLane="westJunction_0" departPos="5.10" departSpeed="19.03" departDelay="0.81" arrival="108.00" arrivalLane="junctionEast_0" arrivalPos="492.80" arrivalSpeed="21.57" duration="80.00" routeLength="994.90" waitingTime="4.00" waitingCount="1" stopTime="0.00" timeLoss="34.38" rerouteNo="0" devices="tripinfo_westEastBottom0.2 ssm_westEastBottom0.2" vType="carCustom" speedFactor="1.02" vaporized=""/>
    <tripinfo id="westEastTop.4" depart="21.00" departLane="westJunction_1" departPos="5.10" departSpeed="11.75" departDelay="3.56" arrival="110.00" arrivalLane="junctionEast_1" arrivalPos="492.80" arrivalSpeed="21.60" duration="89.00" routeLength="994.90" waitingTime="0.00" waitingCount="0" stopTime="0.00" timeLoss="43.83" rerouteNo="0" devices="tripinfo_westEastTop.4 ssm_westEastTop.4" vType="carCustom" speedFactor="0.88" vaporized=""/>
    <tripinfo id="southNorth.5" depart="16.00" departLane="southJunction_1" departPos="5.10" departSpeed="11.14" departDelay="1.32" arrival="114.00" arrivalLane="junctionNorth_0" arrivalPos="492.80" arrivalSpeed="21.90" duration="98.00" routeLength="995.01" waitingTime="0.00" waitingCount="0" stopTime="0.00" timeLoss="53.17" rerouteNo="0" devices="tripinfo_southNorth.5 ssm_southNorth.5" vType="carCustom" speedFactor="0.99" vaporized=""/>
    <tripinfo id="southEast.3" depart="17.00" departLane="southJunction_0" departPos="5.10" departSpeed="16.86" departDelay="3.12" arrival="116.00" arrivalLane="junctionEast_0" arrivalPos="492.80" arrivalSpeed="21.67" duration="99.00" routeLength="989.53" waitingTime="0.00" waitingCount="0" stopTime="0.00" timeLoss="52.82" rerouteNo="0" devices="tripinfo_southEast.3 ssm_southEast.3" vType="carCustom" speedFactor="0.93" vaporized=""/>
    <tripinfo id="westEastBottom0.3" depart="43.00" departLane="westJunction_0" departPos="5.10" departSpeed="14.06" departDelay="0.60" arrival="119.00" arrivalLane="junctionEast_1" arrivalPos="492.80" arrivalSpeed="22.14" duration="76.00" routeLength="994.90" waitingTime="0.00" waitingCount="0" stopTime="0.00" timeLoss="30.90" rerouteNo="0" devices="tripinfo_westEastBottom0.3 ssm_westEastBottom0.3" vType="carCustom" speedFactor="1.06" vaporized=""/>
    <tripinfo id="southNorth.6" depart="18.00" departLane="southJunction_1" departPos="5.10" departSpeed="8.59" departDelay="1.60" arrival="125.00" arrivalLane="junctionNorth_0" arrivalPos="492.80" arrivalSpeed="21.98" duration="107.00" routeLength="995.01" waitingTime="0.00" waitingCount="0" stopTime="0.00" timeLoss="61.41" rerouteNo="0" devices="tripinfo_southNorth.6 ssm_southNorth.6" vType="carCustom" speedFactor="1.03" vaporized=""/>
    <tripinfo id="southEast.4" depart="19.00" departLane="southJunction_0" departPos="5.10" departSpeed="14.30" departDelay="1.24" arrival="125.00" arrivalLane="junctionEast_0" arrivalPos="492.80" arrivalSpeed="21.82" duration="106.00" routeLength="989.53" waitingTime="0.00" waitingCount="0" stopTime="0.00" timeLoss="60.13" rerouteNo="0" devices="tripinfo_southEast.4 ssm_southEast.4" vType="carCustom" speedFactor="1.01" vaporized=""/>
    <tripinfo id="westEastTop.5" depart="23.00" departLane="westJunction_1" departPos="5.10" departSpeed="9.19" departDelay="4.18" arrival="128.00" arrivalLane="junctionEast_1" arrivalPos="492.80" arrivalSpeed="21.07" duration="105.00" routeLength="994.90" waitingTime="0.00" waitingCount="0" stopTime="0.00" timeLoss="59.69" rerouteNo="0" devices="tripinfo_westEastTop.5 ssm_westEastTop.5" vType="carCustom" speedFactor="0.94" vaporized=""/>
    <tripinfo id="southEast.5" depart="33.00" departLane="southJunction_0" departPos="5.10" departSpeed="6.00" departDelay="0.34" arrival="133.00" arrivalLane="junctionEast_0" arrivalPos="492.80" arrivalSpeed="21.40" duration="100.00" routeLength="989.53" waitingTime="0.00" waitingCount="0" stopTime="0.00" timeLoss="53.98" rerouteNo="0" devices="tripinfo_southEast.5 ssm_southEast.5" vType="carCustom" speedFactor="0.93" vaporized=""/>
    <tripinfo id="southNorth.7" depart="34.00" departLane="southJunction_1" departPos="5.10" departSpeed="3.79" departDelay="0.21" arrival="135.00" arrivalLane="junctionNorth_0" arrivalPos="492.80" arrivalSpeed="21.48" duration="101.00" routeLength="995.01" waitingTime="0.00" waitingCount="0" stopTime="0.00" timeLoss="55.75" rerouteNo="0" devices="tripinfo_southNorth.7 ssm_southNorth.7" vType="carCustom" speedFactor="0.98" vaporized=""/>
    <tripinfo id="westEastTop.6" depart="25.00" departLane="westJunction_1" departPos="5.10" departSpeed="6.64" departDelay="3.49" arrival="137.00" arrivalLane="junctionEast_1" arrivalPos="492.80" arrivalSpeed="21.40" duration="112.00" routeLength="994.90" waitingTime="0.00" waitingCount="0" stopTime="0.00" timeLoss="66.47" rerouteNo="0" devices="tripinfo_westEastTop.6 ssm_westEastTop.6" vType="carCustom" speedFactor="1.05" vaporized=""/>
    <tripinfo id="westEastBottom0.4" depart="54.00" departLane="westJunction_0" departPos="5.10" departSpeed="15.31" departDelay="0.91" arrival="142.00" arrivalLane="junctionEast_0" arrivalPos="492.80" arrivalSpeed="21.39" duration="88.00" routeLength="994.90" waitingTime="5.00" waitingCount="1" stopTime="0.00" timeLoss="42.15" rerouteNo="0" devices="tripinfo_westEastBottom0.4 ssm_westEastBottom0.4" vType="carCustom" speedFactor="1.04" vaporized=""/>
    <tripinfo id="southNorth.8" depart="39.00" departLane="southJunction_1" departPos="5.10" departSpeed="7.25" departDelay="0.62" arrival="145.00" arrivalLane="junctionNorth_0" arrivalPos="492.80" arrivalSpeed="21.30" duration="106.00" routeLength="995.01" waitingTime="0.00" waitingCount="0" stopTime="0.00" timeLoss="60.76" rerouteNo="0" devices="tripinfo_southNorth.8 ssm_southNorth.8" vType="carCustom" speedFactor="1.00" vaporized=""/>
    <tripinfo id="southEast.6" depart="49.00" departLane="southJunction_0" departPos="5.10" departSpeed="8.83" departDelay="0.33" arrival="145.00" arrivalLane="junctionEast_1" arrivalPos="492.80" arrivalSpeed="21.97" duration="96.00" routeLength="989.53" waitingTime="0.00" waitingCount="0" stopTime="0.00" timeLoss="50.40" rerouteNo="0" devices="tripinfo_southEast.6 ssm_southEast.6" vType="carCustom" speedFactor="1.12" vaporized=""/>
    <tripinfo id="southEast.7" depart="58.00" departLane="southJunction_0" departPos="5.10" departSpeed="10.85" departDelay="0.85" arrival="150.00" arrivalLane="junctionEast_0" arrivalPos="492.80" arrivalSpeed="21.77" duration="92.00" routeLength="989.53" waitingTime="0.00" waitingCount="0" stopTime="0.00" timeLoss="46.34" rerouteNo="0" devices="tripinfo_southEast.7 ssm_southEast.7" vType="carCustom" speedFactor="1.14" vaporized=""/>
    <tripinfo id="westEastBottom0.5" depart="56.00" departLane="westJunction_0" departPos="5.10" departSpeed="14.85" departDelay="0.36" arrival="153.00" arrivalLane="junctionEast_1" arrivalPos="492.80" arrivalSpeed="22.00" duration="97.00" routeLength="994.90" waitingTime="0.00" waitingCount="0" stopTime="0.00" timeLoss="52.08" rerouteNo="0" devices="tripinfo_westEastBottom0.5 ssm_westEastBottom0.5" vType="carCustom" speedFactor="1.00" vaporized=""/>
    <tripinfo id="southNorth.9" depart="65.00" departLane="southJunction_1" departPos="5.10" departSpeed="6.49" departDelay="0.90" arrival="156.00" arrivalLane="junctionNorth_0" arrivalPos="492.80" arrivalSpeed="21.14" duration="91.00" routeLength="995.01" waitingTime="1.00" waitingCount="1" stopTime="0.00" timeLoss="45.62" rerouteNo="0" devices="tripinfo_southNorth.9 ssm_southNorth.9" vType="carCustom" speedFactor="0.91" vaporized=""/>
    <tripinfo id="westEastBottom0.6" depart="78.00" departLane="westJunction_0" departPos="5.10" departSpeed="10.98" departDelay="0.76" arrival="158.00" arrivalLane="junctionEast_0" arrivalPos="492.80" arrivalSpeed="21.41" duration="80.00" routeLength="994.90" waitingTime="5.00" waitingCount="1" stopTime="0.00" timeLoss="34.93" rerouteNo="0" devices="tripinfo_westEastBottom0.6 ssm_westEastBottom0.6" vType="carCustom" speedFactor="0.87" vaporized=""/>
    <tripinfo id="westEastTop.7" depart="33.00" departLane="westJunction_1" departPos="5.10" departSpeed="2.59" departDelay="0.89" arrival="161.00" arrivalLane="junctionEast_1" arrivalPos="492.80" arrivalSpeed="21.45" duration="128.00" routeLength="994.90" waitingTime="1.00" waitingCount="1" stopTime="0.00" timeLoss="83.18" rerouteNo="0" devices="tripinfo_westEastTop.7 ssm_westEastTop.7" vType="carCustom" speedFactor="0.82" vaporized=""/>
    <tripinfo id="southNorth.10" depart="67.00" departLane="southJunction_1" departPos="5.10" departSpeed="10.02" departDelay="1.39" arrival="167.00" arrivalLane="junctionNorth_0" arrivalPos="492.80" arrivalSpeed="22.15" duration="100.00" routeLength="995.01" waitingTime="1.00" waitingCount="1" stopTime="0.00" timeLoss="54.24" rerouteNo="0" devices="tripinfo_southNorth.10 ssm_southNorth.10" vType="carCustom" speedFactor="0.93" vaporized=""/>
    <tripinfo id="westEastBottom0.7" depart="81.00" departLane="westJunction_0" departPos="5.10" departSpeed="16.00" departDelay="0.22" arrival="167.00" arrivalLane="junctionEast_0" arrivalPos="492.80" arrivalSpeed="21.55" duration="86.00" routeLength="994.90" waitingTime="0.00" waitingCount="0" stopTime="0.00" timeLoss="40.87" rerouteNo="0" devices="tripinfo_westEastBottom0.7 ssm_westEastBottom0.7" vType="carCustom" speedFactor="0.98" vaporized=""/>
    <tripinfo id="westEastTop.8" depart="37.00" departLane="westJunction_1" departPos="5.10" departSpeed="3.15" departDelay="1.00" arrival="170.00" arrivalLane="junctionEast_1" arrivalPos="492.80" arrivalSpeed="21.19" duration="133.00" routeLength="994.90" waitingTime="0.00" waitingCount="0" stopTime="0.00" timeLoss="87.38" rerouteNo="0" devices="tripinfo_westEastTop.8 ssm_westEastTop.8" vType="carCustom" speedFactor="1.11" vaporized=""/>
    <tripinfo id="southEast.8" depart="104.00" departLane="southJunction_0" departPos="5.10" departSpeed="8.11" departDelay="0.43" arrival="176.00" arrivalLane="junctionEast_0" arrivalPos="492.80" arrivalSpeed="21.15" duration="72.00" routeLength="989.53" waitingTime="0.00" waitingCount="0" stopTime="0.00" timeLoss="26.09" rerouteNo="0" devices="tripinfo_southEast.8 ssm_southEast.8" vType="carCustom" speedFactor="1.06" vaporized=""/>
    <tripinfo id="southNorth.11" depart="69.00" departLane="southJunction_1" departPos="5.10" departSpeed="7.47" departDelay="3.21" arrival="177.00" arrivalLane="junctionNorth_0" arrivalPos="492.80" arrivalSpeed="21.83" duration="108.00" routeLength="995.01" waitingTime="1.00" waitingCount="1" stopTime="0.00" timeLoss="62.75" rerouteNo="0" devices="tripinfo_southNorth.11 ssm_southNorth.11" vType="carCustom" speedFactor="0.97" vaporized=""/>
    <tripinfo id="westEastTop.9" depart="41.00" departLane="westJunction_1" departPos="5.10" departSpeed="2.96" departDelay="0.63" arrival="178.00" arrivalLane="junctionEast_1" arrivalPos="492.80" arrivalSpeed="21.85" duration="137.00" routeLength="994.90" waitingTime="0.00" waitingCount="0" stopTime="0.00" timeLoss="91.37" rerouteNo="0" devices="tripinfo_westEastTop.9 ssm_westEastTop.9" vType="carCustom" speedFactor="0.90" vaporized=""/>
    <tripinfo id="westEastBottom0.8" depart="83.00" departLane="westJunction_0" departPos="5.10" departSpeed="13.45" departDelay="1.38" arrival="184.00" arrivalLane="junctionEast_0" arrivalPos="492.80" arrivalSpeed="21.75" duration="101.00" routeLength="994.90" waitingTime="0.00" waitingCount="0" stopTime="0.00" timeLoss="56.11" rerouteNo="0" devices="tripinfo_westEastBottom0.8 ssm_westEastBottom0.8" vType="carCustom" speedFactor="1.08" vaporized=""/>
    <tripinfo id="westEastTop.10" depart="47.00" departLane="westJunction_1" departPos="5.10" departSpeed="2.66" departDelay="5.18" arrival="185.00" arrivalLane="junctionEast_1" arrivalPos="492.80" arrivalSpeed="22.08" duration="138.00" routeLength="994.90" waitingTime="0.00" waitingCount="0" stopTime="0.00" timeLoss="93.22" rerouteNo="0" devices="tripinfo_westEastTop.10 ssm_westEastTop.10" vType="carCustom" speedFactor="1.04" vaporized=""/>
    <tripinfo id="southNorth.12" depart="73.00" departLane="southJunction_1" departPos="5.10" departSpeed="3.25" departDelay="0.61" arrival="187.00" arrivalLane="junctionNorth_0" arrivalPos="492.80" arrivalSpeed="21.57" duration="114.00" routeLength="995.01" waitingTime="2.00" waitingCount="1" stopTime="0.00" timeLoss="68.90" rerouteNo="0" devices="tripinfo_southNorth.12 ssm_southNorth.12" vType="carCustom" speedFactor="0.80" vaporized=""/>
    <tripinfo id="westEastBottom0.9" depart="94.00" departLane="westJunction_0" departPos="5.10" departSpeed="7.40" departDelay="0.52" arrival="192.00" arrivalLane="junctionEast_0" arrivalPos="492.80" arrivalSpeed="21.97" duration="98.00" routeLength="994.90" waitingTime="0.00" waitingCount="0" stopTime="0.00" timeLoss="53.23" rerouteNo="0" devices="tripinfo_westEastBottom0.9 ssm_westEastBottom0.9" vType="carCustom" speedFactor="0.98" vaporized=""/>
    <tripinfo id="westEastTop.11" depart="52.00" departLane="westJunction_1" departPos="5.10" departSpeed="2.33" departDelay="9.61" arrival="193.00" arrivalLane="junctionEast_1" arrivalPos="492.80" arrivalSpeed="21.51" duration="141.00" routeLength="994.90" waitingTime="1.00" waitingCount="1" stopTime="0.00" timeLoss="95.90" rerouteNo="0" devices="tripinfo_westEastTop.11 ssm_westEastTop.11" vType="carCustom" speedFactor="1.06" vaporized=""/>
    <tripinfo id="southNorth.13" depart="77.00" departLane="southJunction_1" departPos="5.10" departSpeed="3.09" departDelay="2.70" arrival="197.00" arrivalLane="junctionNorth_0" arrivalPos="492.80" arrivalSpeed="21.29" duration="120.00" routeLength="995.01" waitingTime="3.00" waitingCount="1" stopTime="0.00" timeLoss="74.97" rerouteNo="0" devices="tripinfo_southNorth.13 ssm_southNorth.13" vType="carCustom" speedFactor="1.11" vaporized=""/>
    <tripinfo id="southEast.14" depart="138.00" departLane="southJunction_0" departPos="5.10" departSpeed="8.69" departDelay="2.58" arrival="199.00" arrivalLane="junctionEast_0" arrivalPos="492.80" arrivalSpeed="4.04" duration="61.00" routeLength="989.53" waitingTime="0.00" waitingCount="0" stopTime="0.00" timeLoss="37.37" rerouteNo="0" devices="tripinfo_southEast.14 ssm_southEast.14" vType="carCustom" speedFactor="0.98" vaporized="teleport"/>
    <tripinfo id="southEast.9" depart="114.00" departLane="southJunction_0" departPos="5.10" departSpeed="16.38" departDelay="0.34" arrival="200.00" arrivalLane="junctionEast_0" arrivalPos="492.80" arrivalSpeed="21.49" duration="86.00" routeLength="989.53" waitingTime="2.00" waitingCount="1" stopTime="0.00" timeLoss="40.68" rerouteNo="0" devices="tripinfo_southEast.9 ssm_southEast.9" vType="carCustom" speedFactor="1.03" vaporized=""/>
    <tripinfo id="westEastTop.12" depart="58.00" departLane="westJunction_1" departPos="5.10" departSpeed="1.86" departDelay="0.75" arrival="201.00" arrivalLane="junctionEast_1" arrivalPos="492.80" arrivalSpeed="21.56" duration="143.00" routeLength="994.90" waitingTime="2.00" waitingCount="1" stopTime="0.00" timeLoss="98.22" rerouteNo="0" devices="tripinfo_westEastTop.12 ssm_westEastTop.12" vType="carCustom" speedFactor="0.94" vaporized=""/>
    <tripinfo id="westEastBottom0.10" depart="96.00" departLane="westJunction_0" departPos="5.10" departSpeed="9.60" departDelay="1.65" arrival="208.00" arrivalLane="junctionEast_0" arrivalPos="492.80" arrivalSpeed="21.63" duration="112.00" routeLength="994.90" waitingTime="0.00" waitingCount="0" stopTime="0.00" timeLoss="67.11" rerouteNo="0" devices="tripinfo_westEastBottom0.10 ssm_westEastBottom0.10" vType="carCustom" speedFactor="0.96" vaporized=""/>
    <tripinfo id="southNorth.14" depart="94.00" departLane="southJunction_1" departPos="5.10" departSpeed="5.44" departDelay="0.75" arrival="210.00" arrivalLane="junctionNorth_0" arrivalPos="492.80" arrivalSpeed="21.29" duration="116.00" routeLength="995.01" waitingTime="9.00" waitingCount="1" stopTime="0.00" timeLoss="70.29" rerouteNo="0" devices="tripinfo_southNorth.14 ssm_southNorth.14" vType="carCustom" speedFactor="0.91" vaporized=""/>
    <tripinfo id="southEast.10" depart="126.00" departLane="southJunction_0" departPos="5.10" departSpeed="14.46" departDelay="0.24" arrival="210.00" arrivalLane="junctionEast_1" arrivalPos="492.80" arrivalSpeed="21.31" duration="84.00" routeLength="989.53" waitingTime="0.00" waitingCount="0" stopTime="0.00" timeLoss="37.50" rerouteNo="0" devices="tripinfo_southEast.10 ssm_southEast.10" vType="carCustom" speedFactor="1.00" vaporized=""/>
    <tripinfo id="westEastBottom0.11" depart="133.00" departLane="westJunction_0" departPos="5.10" departSpeed="9.39" departDelay="0.46" arrival="216.00" arrivalLane="junctionEast_0" arrivalPos="492.80" arrivalSpeed="21.61" duration="83.00" routeLength="994.90" waitingTime="0.00" waitingCount="0" stopTime="0.00" timeLoss="37.95" rerouteNo="0" devices="tripinfo_westEastBottom0.11 ssm_westEastBottom0.11" vType="carCustom" speedFactor="0.97" vaporized=""/>
    <tripinfo id="westEastTop.13" depart="64.00" departLane="westJunction_1" departPos="5.10" departSpeed="1.86" departDelay="5.71" arrival="218.00" arrivalLane="junctionEast_1" arrivalPos="492.80" arrivalSpeed="21.79" duration="154.00" routeLength="994.90" waitingTime="3.00" waitingCount="1" stopTime="0.00" timeLoss="108.59" rerouteNo="0" devices="tripinfo_westEastTop.13 ssm_westEastTop.13" vType="carCustom" speedFactor="0.94" vaporized=""/>
    <tripinfo id="southNorth.15" depart="114.00" departLane="southJunction_1" departPos="5.10" departSpeed="7.48" departDelay="0.44" arrival="221.00" arrivalLane="junctionNorth_0" arrivalPos="492.80" arrivalSpeed="21.97" duration="107.00" routeLength="995.01" waitingTime="6.00" waitingCount="2" stopTime="0.00" timeLoss="61.76" rerouteNo="0" devices="tripinfo_southNorth.15 ssm_southNorth.15" vType="carCustom" speedFactor="1.16" vaporized=""/>
    <tripinfo id="southEast.11" depart="130.00" departLane="southJunction_0" departPos="5.10" departSpeed="14.87" departDelay="0.11" arrival="224.00" arrivalLane="junctionEast_0" arrivalPos="492.80" arrivalSpeed="21.20" duration="94.00" routeLength="989.53" waitingTime="0.00" waitingCount="0" stopTime="0.00" timeLoss="47.77" rerouteNo="0" devices="tripinfo_southEast.11 ssm_southEast.11" vType="carCustom" speedFactor="0.92" vaporized=""/>
    <tripinfo id="westEastTop.14" depart="75.00" departLane="westJunction_1" departPos="5.10" departSpeed="3.35" departDelay="0.42" arrival="226.00" arrivalLane="junctionEast_1" arrivalPos="492.80" arrivalSpeed="21.85" duration="151.00" routeLength="994.90" waitingTime="0.00" waitingCount="0" stopTime="0.00" timeLoss="105.61" rerouteNo="0" devices="tripinfo_westEastTop.14 ssm_westEastTop.14" vType="carCustom" speedFactor="1.17" vaporized=""/>
    <tripinfo id="southNorth.16" depart="121.00" departLane="southJunction_1" departPos="5.10" departSpeed="10.63" departDelay="0.85" arrival="232.00" arrivalLane="junctionNorth_0" arrivalPos="492.80" arrivalSpeed="21.51" duration="111.00" routeLength="995.01" waitingTime="4.00" waitingCount="2" stopTime="0.00" timeLoss="65.43" rerouteNo="0" devices="tripinfo_southNorth.16 ssm_southNorth.16" vType="carCustom" speedFactor="1.00" vaporized=""/>
    <tripinfo id="westEastBottom0.12" depart="135.00" departLane="westJunction_0" departPos="5.10" departSpeed="12.81" departDelay="2.07" arrival="232.00" arrivalLane="junctionEast_0" arrivalPos="492.80" arrivalSpeed="21.72" duration="97.00" routeLength="994.90" waitingTime="3.00" waitingCount="1" stopTime="0.00" timeLoss="51.71" rerouteNo="0" devices="tripinfo_westEastBottom0.12 ssm_westEastBottom0.12" vType="carCustom" speedFactor="0.90" vaporized=""/>
    <tripinfo id="westEastTop.15" depart="79.00" departLane="westJunction_1" departPos="5.10" departSpeed="3.76" departDelay="1.22" arrival="234.00" arrivalLane="junctionEast_1" arrivalPos="492.80" arrivalSpeed="21.30" duration="155.00" routeLength="994.90" waitingTime="2.00" waitingCount="1" stopTime="0.00" timeLoss="109.62" rerouteNo="0" devices="tripinfo_westEastTop.15 ssm_westEastTop.15" vType="carCustom" speedFactor="0.87" vaporized=""/>
    <tripinfo id="southEast.12" depart="134.00" departLane="southJunction_0" departPos="5.10" departSpeed="10.24" departDelay="0.64" arrival="240.00" arrivalLane="junctionEast_0" arrivalPos="492.80" arrivalSpeed="21.56" duration="106.00" routeLength="989.53" waitingTime="0.00" waitingCount="0" stopTime="0.00" timeLoss="60.16" rerouteNo="0" devices="tripinfo_southEast.12 ssm_southEast.12" vType="carCustom" speedFactor="1.05" vaporized=""/>
    <tripinfo id="westEastTop.16" depart="90.00" departLane="westJunction_1" departPos="5.10" departSpeed="2.85" departDelay="0.59" arrival="242.00" arrivalLane="junctionEast_1" arrivalPos="492.80" arrivalSpeed="21.78" duration="152.00" routeLength="994.90" waitingTime="4.00" waitingCount="1" stopTime="0.00" timeLoss="106.57" rerouteNo="0" devices="tripinfo_westEastTop.16 ssm_westEastTop.16" vType="carCustom" speedFactor="1.08" vaporized=""/>
    <tripinfo id="southNorth.17" depart="141.00" departLane="southJunction_1" departPos="5.10" departSpeed="7.41" departDelay="2.97" arrival="242.00" arrivalLane="junctionNorth_0" arrivalPos="492.80" arrivalSpeed="21.30" duration="101.00" routeLength="995.01" waitingTime="4.00" waitingCount="1" stopTime="0.00" timeLoss="56.05" rerouteNo="0" devices="tripinfo_southNorth.17 ssm_southNorth.17" vType="carCustom" speedFactor="1.05" vaporized=""/>
    <tripinfo id="westEastBottom0.13" depart="141.00" departLane="westJunction_0" departPos="5.10" departSpeed="8.10" departDelay="0.47" arrival="248.00" arrivalLane="junctionEast_0" arrivalPos="492.80" arrivalSpeed="21.81" duration="107.00" routeLength="994.90" waitingTime="0.00" waitingCount="0" stopTime="0.00" timeLoss="61.54" rerouteNo="0" devices="tripinfo_westEastBottom0.13 ssm_westEastBottom0.13" vType="carCustom" speedFactor="1.00" vaporized=""/>