<?xml version="1.0" encoding="UTF-8"?>

<!-- generated on 2025-04-29 09:44:26 by Eclipse SUMO sumo Version 1.20.0
<configuration xmlns:xsi="http://www.w3.org/2001/XMLSchema-instance" xsi:noNamespaceSchemaLocation="http://sumo.dlr.de/xsd/sumoConfiguration.xsd">

    <input>
        <net-file value="nets/2lane_unprotected_right/2lane_unprotected_right.net.xml"/>
        <route-files value="nets/2lane_unprotected_right/2lane_unprotected_right.rou.xml"/>
    </input>

    <output>
        <tripinfo-output value="traces/transs50f0.5_s50_f1_random/0226_tripinfo.xml"/>
        <collision-output value="traces/transs50f0.5_s50_f1_random/0226_collisions.xml"/>
        <statistic-output value="traces/transs50f0.5_s50_f1_random/0226_statistics.xml"/>
    </output>

    <processing>
        <collision.action value="teleport"/>
        <collision.check-junctions value="true"/>
        <time-to-teleport value="-1"/>
        <waiting-time-memory value="1000"/>
        <max-depart-delay value="-1"/>
        <default.speeddev value="0.1"/>
    </processing>

    <report>
        <no-warnings value="true"/>
    </report>

    <ssm_device>
        <device.ssm.probability value="1.0"/>
        <device.ssm.measures value="BR"/>
        <device.ssm.file value="/Users/finn/Code/CausalKnowledgeTransfer-4-SafeRL/traces/transs50f0.5_s50_f1_random/0226_ssm.xml"/>
    </ssm_device>

    <traci_server>
        <remote-port value="65198"/>
    </traci_server>

    <random_number>
        <random value="true"/>
    </random_number>

</configuration>
-->

<tripinfos xmlns:xsi="http://www.w3.org/2001/XMLSchema-instance" xsi:noNamespaceSchemaLocation="http://sumo.dlr.de/xsd/tripinfo_file.xsd">
    <tripinfo id="southEast.0" depart="3.00" departLane="southJunction_0" departPos="5.10" departSpeed="27.78" departDelay="0.42" arrival="26.00" arrivalLane="junctionEast_0" arrivalPos="492.80" arrivalSpeed="6.02" duration="23.00" routeLength="989.53" waitingTime="0.00" waitingCount="0" stopTime="0.00" timeLoss="3.07" rerouteNo="0" devices="tripinfo_southEast.0 ssm_southEast.0" vType="carCustom" speedFactor="0.93" vaporized="teleport"/>
    <tripinfo id="westEastBottom0.0" depart="1.00" departLane="westJunction_0" departPos="5.10" departSpeed="27.78" departDelay="0.74" arrival="38.00" arrivalLane="junctionEast_0" arrivalPos="492.80" arrivalSpeed="26.87" duration="37.00" routeLength="994.90" waitingTime="0.00" waitingCount="0" stopTime="0.00" timeLoss="0.84" rerouteNo="0" devices="tripinfo_westEastBottom0.0 ssm_westEastBottom0.0" vType="carCustom" speedFactor="0.78" vaporized=""/>
    <tripinfo id="westEastTop.0" depart="6.00" departLane="westJunction_1" departPos="5.10" departSpeed="27.78" departDelay="0.39" arrival="43.00" arrivalLane="junctionEast_1" arrivalPos="492.80" arrivalSpeed="26.50" duration="37.00" routeLength="994.90" waitingTime="0.00" waitingCount="0" stopTime="0.00" timeLoss="0.73" rerouteNo="0" devices="tripinfo_westEastTop.0 ssm_westEastTop.0" vType="carCustom" speedFactor="0.91" vaporized=""/>
    <tripinfo id="westEastBottom0.1" depart="7.00" departLane="westJunction_0" departPos="5.10" departSpeed="27.06" departDelay="0.77" arrival="44.00" arrivalLane="junctionEast_0" arrivalPos="492.80" arrivalSpeed="27.14" duration="37.00" routeLength="994.90" waitingTime="0.00" waitingCount="0" stopTime="0.00" timeLoss="1.03" rerouteNo="0" devices="tripinfo_westEastBottom0.1 ssm_westEastBottom0.1" vType="carCustom" speedFactor="1.11" vaporized=""/>
    <tripinfo id="westEastTop.1" depart="8.00" departLane="westJunction_1" departPos="5.10" departSpeed="27.75" departDelay="0.25" arrival="48.00" arrivalLane="junctionEast_1" arrivalPos="492.80" arrivalSpeed="27.51" duration="40.00" routeLength="994.90" waitingTime="0.00" waitingCount="0" stopTime="0.00" timeLoss="3.31" rerouteNo="0" devices="tripinfo_westEastTop.1 ssm_westEastTop.1" vType="carCustom" speedFactor="1.11" vaporized=""/>
    <tripinfo id="westEastTop.2" depart="12.00" departLane="westJunction_1" departPos="5.10" departSpeed="22.39" departDelay="0.89" arrival="52.00" arrivalLane="junctionEast_1" arrivalPos="492.80" arrivalSpeed="26.51" duration="40.00" routeLength="994.90" waitingTime="0.00" waitingCount="0" stopTime="0.00" timeLoss="3.95" rerouteNo="0" devices="tripinfo_westEastTop.2 ssm_westEastTop.2" vType="carCustom" speedFactor="0.86" vaporized=""/>
    <tripinfo id="westEastTop.3" depart="14.00" departLane="westJunction_1" departPos="5.10" departSpeed="21.93" departDelay="1.93" arrival="57.00" arrivalLane="junctionEast_1" arrivalPos="492.80" arrivalSpeed="27.67" duration="43.00" routeLength="994.90" waitingTime="0.00" waitingCount="0" stopTime="0.00" timeLoss="6.27" rerouteNo="0" devices="tripinfo_westEastTop.3 ssm_westEastTop.3" vType="carCustom" speedFactor="0.96" vaporized=""/>
    <tripinfo id="westEastTop.4" depart="16.00" departLane="westJunction_1" departPos="5.10" departSpeed="17.47" departDelay="1.66" arrival="61.00" arrivalLane="junctionEast_1" arrivalPos="492.80" arrivalSpeed="26.88" duration="45.00" routeLength="994.90" waitingTime="0.00" waitingCount="0" stopTime="0.00" timeLoss="8.73" rerouteNo="0" devices="tripinfo_westEastTop.4 ssm_westEastTop.4" vType="carCustom" speedFactor="1.21" vaporized=""/>
    <tripinfo id="westEastTop.5" depart="18.00" departLane="westJunction_1" departPos="5.10" departSpeed="14.77" departDelay="2.87" arrival="65.00" arrivalLane="junctionEast_1" arrivalPos="492.80" arrivalSpeed="26.85" duration="47.00" routeLength="994.90" waitingTime="0.00" waitingCount="0" stopTime="0.00" timeLoss="10.95" rerouteNo="0" devices="tripinfo_westEastTop.5 ssm_westEastTop.5" vType="carCustom" speedFactor="1.18" vaporized=""/>
    <tripinfo id="westEastTop.6" depart="20.00" departLane="westJunction_1" departPos="5.10" departSpeed="11.21" departDelay="2.10" arrival="69.00" arrivalLane="junctionEast_1" arrivalPos="492.80" arrivalSpeed="27.62" duration="49.00" routeLength="994.90" waitingTime="0.00" waitingCount="0" stopTime="0.00" timeLoss="13.07" rerouteNo="0" devices="tripinfo_westEastTop.6 ssm_westEastTop.6" vType="carCustom" speedFactor="1.14" vaporized=""/>
    <tripinfo id="southEast.1" depart="27.00" departLane="southJunction_0" departPos="5.10" departSpeed="27.78" departDelay="0.56" arrival="73.00" arrivalLane="junctionEast_0" arrivalPos="492.80" arrivalSpeed="26.74" duration="46.00" routeLength="989.53" waitingTime="0.00" waitingCount="0" stopTime="0.00" timeLoss="7.94" rerouteNo="0" devices="tripinfo_southEast.1 ssm_southEast.1" vType="carCustom" speedFactor="0.86" vaporized=""/>
    <tripinfo id="westEastTop.7" depart="25.00" departLane="westJunction_1" departPos="5.10" departSpeed="13.84" departDelay="0.05" arrival="79.00" arrivalLane="junctionEast_1" arrivalPos="492.80" arrivalSpeed="27.36" duration="54.00" routeLength="994.90" waitingTime="0.00" waitingCount="0" stopTime="0.00" timeLoss="18.10" rerouteNo="0" devices="tripinfo_westEastTop.7 ssm_westEastTop.7" vType="carCustom" speedFactor="1.10" vaporized=""/>
    <tripinfo id="westEastBottom0.2" depart="30.00" departLane="westJunction_0" departPos="5.10" departSpeed="27.78" departDelay="0.50" arrival="83.00" arrivalLane="junctionEast_1" arrivalPos="492.80" arrivalSpeed="26.95" duration="53.00" routeLength="994.90" waitingTime="0.00" waitingCount="0" stopTime="0.00" timeLoss="17.03" rerouteNo="0" devices="tripinfo_westEastBottom0.2 ssm_westEastBottom0.2" vType="carCustom" speedFactor="1.15" vaporized=""/>
    <tripinfo id="southNorth.0" depart="37.00" departLane="southJunction_1" departPos="5.10" departSpeed="27.78" departDelay="0.01" arrival="86.00" arrivalLane="junctionNorth_0" arrivalPos="492.80" arrivalSpeed="26.74" duration="49.00" routeLength="995.01" waitingTime="6.00" waitingCount="1" stopTime="0.00" timeLoss="12.33" rerouteNo="0" devices="tripinfo_southNorth.0 ssm_southNorth.0" vType="carCustom" speedFactor="1.06" vaporized=""/>
    <tripinfo id="southNorth.1" depart="40.00" departLane="southJunction_1" departPos="5.10" departSpeed="27.36" departDelay="0.92" arrival="90.00" arrivalLane="junctionNorth_0" arrivalPos="492.80" arrivalSpeed="26.96" duration="50.00" routeLength="995.01" waitingTime="0.00" waitingCount="0" stopTime="0.00" timeLoss="14.08" rerouteNo="0" devices="tripinfo_southNorth.1 ssm_southNorth.1" vType="carCustom" speedFactor="1.01" vaporized=""/>
    <tripinfo id="westEastTop.8" depart="28.00" departLane="westJunction_1" departPos="5.10" departSpeed="14.77" departDelay="0.69" arrival="91.00" arrivalLane="junctionEast_0" arrivalPos="492.80" arrivalSpeed="26.56" duration="63.00" routeLength="994.90" waitingTime="1.00" waitingCount="1" stopTime="0.00" timeLoss="27.00" rerouteNo="0" devices="tripinfo_westEastTop.8 ssm_westEastTop.8" vType="carCustom" speedFactor="0.83" vaporized=""/>
    <tripinfo id="westEastBottom0.3" depart="39.00" departLane="westJunction_0" departPos="5.10" departSpeed="27.78" departDelay="0.02" arrival="95.00" arrivalLane="junctionEast_1" arrivalPos="492.80" arrivalSpeed="27.04" duration="56.00" routeLength="994.90" waitingTime="0.00" waitingCount="0" stopTime="0.00" timeLoss="19.76" rerouteNo="0" devices="tripinfo_westEastBottom0.3 ssm_westEastBottom0.3" vType="carCustom" speedFactor="1.01" vaporized=""/>
    <tripinfo id="southNorth.2" depart="42.00" departLane="southJunction_1" departPos="5.10" departSpeed="23.69" departDelay="0.74" arrival="97.00" arrivalLane="junctionNorth_0" arrivalPos="492.80" arrivalSpeed="26.98" duration="55.00" routeLength="995.01" waitingTime="1.00" waitingCount="1" stopTime="0.00" timeLoss="18.57" rerouteNo="0" devices="tripinfo_southNorth.2 ssm_southNorth.2" vType="carCustom" speedFactor="0.77" vaporized=""/>
    <tripinfo id="southNorth.3" depart="48.00" departLane="southJunction_1" departPos="5.10" departSpeed="21.06" departDelay="0.60" arrival="101.00" arrivalLane="junctionNorth_0" arrivalPos="492.80" arrivalSpeed="27.32" duration="53.00" routeLength="995.01" waitingTime="0.00" waitingCount="0" stopTime="0.00" timeLoss="16.48" rerouteNo="0" devices="tripinfo_southNorth.3 ssm_southNorth.3" vType="carCustom" speedFactor="1.06" vaporized=""/>
    <tripinfo id="southNorth.4" depart="51.00" departLane="southJunction_1" departPos="5.10" departSpeed="24.33" departDelay="0.48" arrival="105.00" arrivalLane="junctionNorth_0" arrivalPos="492.80" arrivalSpeed="26.71" duration="54.00" routeLength="995.01" waitingTime="0.00" waitingCount="0" stopTime="0.00" timeLoss="17.36" rerouteNo="0" devices="tripinfo_southNorth.4 ssm_southNorth.4" vType="carCustom" speedFactor="0.92" vaporized=""/>
    <tripinfo id="westEastTop.9" depart="43.00" departLane="westJunction_1" departPos="5.10" departSpeed="20.07" departDelay="0.16" arrival="108.00" arrivalLane="junctionEast_0" arrivalPos="492.80" arrivalSpeed="27.70" duration="65.00" routeLength="994.90" waitingTime="8.00" waitingCount="1" stopTime="0.00" timeLoss="28.59" rerouteNo="0" devices="tripinfo_westEastTop.9 ssm_westEastTop.9" vType="carCustom" speedFactor="1.03" vaporized=""/>
    <tripinfo id="westEastTop.10" depart="46.00" departLane="westJunction_1" departPos="5.10" departSpeed="20.72" departDelay="0.08" arrival="111.00" arrivalLane="junctionEast_1" arrivalPos="492.80" arrivalSpeed="27.21" duration="65.00" routeLength="994.90" waitingTime="3.00" waitingCount="1" stopTime="0.00" timeLoss="28.92" rerouteNo="0" devices="tripinfo_westEastTop.10 ssm_westEastTop.10" vType="carCustom" speedFactor="1.05" vaporized=""/>
    <tripinfo id="southEast.2" depart="56.00" departLane="southJunction_0" departPos="5.10" departSpeed="27.78" departDelay="0.58" arrival="113.00" arrivalLane="junctionEast_0" arrivalPos="492.80" arrivalSpeed="26.79" duration="57.00" routeLength="989.53" waitingTime="5.00" waitingCount="1" stopTime="0.00" timeLoss="20.22" rerouteNo="0" devices="tripinfo_southEast.2 ssm_southEast.2" vType="carCustom" speedFactor="1.06" vaporized=""/>
    <tripinfo id="westEastTop.11" depart="48.00" departLane="westJunction_1" departPos="5.10" departSpeed="18.58" departDelay="1.68" arrival="115.00" arrivalLane="junctionEast_1" arrivalPos="492.80" arrivalSpeed="27.47" duration="67.00" routeLength="994.90" waitingTime="1.00" waitingCount="1" stopTime="0.00" timeLoss="30.74" rerouteNo="0" devices="tripinfo_westEastTop.11 ssm_westEastTop.11" vType="carCustom" speedFactor="0.93" vaporized=""/>
    <tripinfo id="southEast.3" depart="58.00" departLane="southJunction_0" departPos="5.10" departSpeed="24.31" departDelay="0.77" arrival="117.00" arrivalLane="junctionEast_0" arrivalPos="492.80" arrivalSpeed="27.61" duration="59.00" routeLength="989.53" waitingTime="0.00" waitingCount="0" stopTime="0.00" timeLoss="21.44" rerouteNo="0" devices="tripinfo_southEast.3 ssm_southEast.3" vType="carCustom" speedFactor="1.00" vaporized=""/>
    <tripinfo id="westEastTop.12" depart="50.00" departLane="westJunction_1" departPos="5.10" departSpeed="15.47" departDelay="2.77" arrival="119.00" arrivalLane="junctionEast_1" arrivalPos="492.80" arrivalSpeed="27.44" duration="69.00" routeLength="994.90" waitingTime="0.00" waitingCount="0" stopTime="0.00" timeLoss="32.52" rerouteNo="0" devices="tripinfo_westEastTop.12 ssm_westEastTop.12" vType="carCustom" speedFactor="1.05" vaporized=""/>
    <tripinfo id="westEastTop.13" depart="52.00" departLane="westJunction_1" departPos="5.10" departSpeed="12.89" departDelay="1.35" arrival="122.00" arrivalLane="junctionEast_1" arrivalPos="492.80" arrivalSpeed="26.77" duration="70.00" routeLength="994.90" waitingTime="0.00" waitingCount="0" stopTime="0.00" timeLoss="34.16" rerouteNo="0" devices="tripinfo_westEastTop.13 ssm_westEastTop.13" vType="carCustom" speedFactor="1.10" vaporized=""/>
    <tripinfo id="westEastTop.14" depart="54.00" departLane="westJunction_1" departPos="5.10" departSpeed="9.83" departDelay="1.16" arrival="126.00" arrivalLane="junctionEast_1" arrivalPos="492.80" arrivalSpeed="27.17" duration="72.00" routeLength="994.90" waitingTime="0.00" waitingCount="0" stopTime="0.00" timeLoss="35.64" rerouteNo="0" devices="tripinfo_westEastTop.14 ssm_westEastTop.14" vType="carCustom" speedFactor="0.97" vaporized=""/>
    <tripinfo id="southEast.4" depart="69.00" departLane="southJunction_0" departPos="5.10" departSpeed="18.76" departDelay="0.69" arrival="127.00" arrivalLane="junctionEast_0" arrivalPos="492.80" arrivalSpeed="26.95" duration="58.00" routeLength="989.53" waitingTime="2.00" waitingCount="1" stopTime="0.00" timeLoss="21.23" rerouteNo="0" devices="tripinfo_southEast.4 ssm_southEast.4" vType="carCustom" speedFactor="1.00" vaporized=""/>
    <tripinfo id="southNorth.5" depart="55.00" departLane="southJunction_1" departPos="5.10" departSpeed="21.96" departDelay="0.87" arrival="128.00" arrivalLane="junctionNorth_0" arrivalPos="492.80" arrivalSpeed="27.11" duration="73.00" routeLength="995.01" waitingTime="18.00" waitingCount="1" stopTime="0.00" timeLoss="36.77" rerouteNo="0" devices="tripinfo_southNorth.5 ssm_southNorth.5" vType="carCustom" speedFactor="0.83" vaporized=""/>
    <tripinfo id="westEastBottom0.4" depart="64.00" departLane="westJunction_0" departPos="5.10" departSpeed="27.78" departDelay="0.77" arrival="129.00" arrivalLane="junctionEast_1" arrivalPos="492.80" arrivalSpeed="26.67" duration="65.00" routeLength="994.90" waitingTime="0.00" waitingCount="0" stopTime="0.00" timeLoss="29.15" rerouteNo="0" devices="tripinfo_westEastBottom0.4 ssm_westEastBottom0.4" vType="carCustom" speedFactor="0.92" vaporized=""/>
    <tripinfo id="southEast.5" depart="77.00" departLane="southJunction_0" departPos="5.10" departSpeed="26.91" departDelay="0.43" arrival="131.00" arrivalLane="junctionEast_0" arrivalPos="492.80" arrivalSpeed="27.72" duration="54.00" routeLength="989.53" waitingTime="0.00" waitingCount="0" stopTime="0.00" timeLoss="16.38" rerouteNo="0" devices="tripinfo_southEast.5 ssm_southEast.5" vType="carCustom" speedFactor="0.92" vaporized=""/>
    <tripinfo id="southNorth.6" depart="79.00" departLane="southJunction_1" departPos="5.10" departSpeed="11.56" departDelay="0.31" arrival="132.00" arrivalLane="junctionNorth_0" arrivalPos="492.80" arrivalSpeed="27.47" duration="53.00" routeLength="995.01" waitingTime="0.00" waitingCount="0" stopTime="0.00" timeLoss="16.71" rerouteNo="0" devices="tripinfo_southNorth.6 ssm_southNorth.6" vType="carCustom" speedFactor="1.00" vaporized=""/>
    <tripinfo id="westEastTop.15" depart="63.00" departLane="westJunction_1" departPos="5.10" departSpeed="13.63" departDelay="0.59" arrival="133.00" arrivalLane="junctionEast_1" arrivalPos="492.80" arrivalSpeed="26.59" duration="70.00" routeLength="994.90" waitingTime="0.00" waitingCount="0" stopTime="0.00" timeLoss="33.58" rerouteNo="0" devices="tripinfo_westEastTop.15 ssm_westEastTop.15" vType="carCustom" speedFactor="1.02" vaporized=""/>
    <tripinfo id="westEastBottom0.6" depart="75.00" departLane="westJunction_0" departPos="5.10" departSpeed="27.78" departDelay="0.24" arrival="136.00" arrivalLane="junctionEast_1" arrivalPos="492.80" arrivalSpeed="27.50" duration="61.00" routeLength="994.90" waitingTime="5.00" waitingCount="1" stopTime="0.00" timeLoss="24.95" rerouteNo="0" devices="tripinfo_westEastBottom0.6 ssm_westEastBottom0.6" vType="carCustom" speedFactor="0.84" vaporized=""/>
    <tripinfo id="westEastBottom0.5" depart="71.00" departLane="westJunction_0" departPos="5.10" departSpeed="27.78" departDelay="0.75" arrival="140.00" arrivalLane="junctionEast_1" arrivalPos="492.80" arrivalSpeed="26.62" duration="69.00" routeLength="994.90" waitingTime="0.00" waitingCount="0" stopTime="0.00" timeLoss="32.50" rerouteNo="0" devices="tripinfo_westEastBottom0.5 ssm_westEastBottom0.5" vType="carCustom" speedFactor="0.78" vaporized=""/>
    <tripinfo id="westEastBottom0.7" depart="80.00" departLane="westJunction_0" departPos="5.10" departSpeed="17.83" departDelay="0.29" arrival="141.00" arrivalLane="junctionEast_0" arrivalPos="492.80" arrivalSpeed="26.55" duration="61.00" routeLength="994.90" waitingTime="0.00" waitingCount="0" stopTime="0.00" timeLoss="24.47" rerouteNo="0" devices="tripinfo_westEastBottom0.7 ssm_westEastBottom0.7" vType="carCustom" speedFactor="0.92" vaporized=""/>
    <tripinfo id="westEastTop.16" depart="71.00" departLane="westJunction_1" departPos="5.10" departSpeed="10.67" departDelay="0.56" arrival="143.00" arrivalLane="junctionEast_1" arrivalPos="492.80" arrivalSpeed="26.79" duration="72.00" routeLength="994.90" waitingTime="0.00" waitingCount="0" stopTime="0.00" timeLoss="35.85" rerouteNo="0" devices="tripinfo_westEastTop.16 ssm_westEastTop.16" vType="carCustom" speedFactor="0.97" vaporized=""/>
    <tripinfo id="southNorth.7" depart="81.00" departLane="southJunction_1" departPos="5.10" departSpeed="14.88" departDelay="2.14" arrival="144.00" arrivalLane="junctionNorth_0" arrivalPos="492.80" arrivalSpeed="27.74" duration="63.00" routeLength="995.01" waitingTime="7.00" waitingCount="1" stopTime="0.00" timeLoss="26.29" rerouteNo="0" devices="tripinfo_southNorth.7 ssm_southNorth.7" vType="carCustom" speedFactor="1.04" vaporized=""/>
    <tripinfo id="southEast.6" depart="92.00" departLane="southJunction_0" departPos="5.10" departSpeed="18.71" departDelay="0.73" arrival="145.00" arrivalLane="junctionEast_0" arrivalPos="492.80" arrivalSpeed="27.67" duration="53.00" routeLength="989.53" waitingTime="0.00" waitingCount="0" stopTime="0.00" timeLoss="15.67" rerouteNo="0" devices="tripinfo_southEast.6 ssm_southEast.6" vType="carCustom" speedFactor="1.00" vaporized=""/>
    <tripinfo id="westEastTop.17" depart="74.00" departLane="westJunction_1" departPos="5.10" departSpeed="15.65" departDelay="0.76" arrival="146.00" arrivalLane="junctionEast_1" arrivalPos="492.80" arrivalSpeed="27.07" duration="72.00" routeLength="994.90" waitingTime="0.00" waitingCount="0" stopTime="0.00" timeLoss="36.12" rerouteNo="0" devices="tripinfo_westEastTop.17 ssm_westEastTop.17" vType="carCustom" speedFactor="0.92" vaporized=""/>
    <tripinfo id="southNorth.8" depart="96.00" departLane="southJunction_1" departPos="5.10" departSpeed="21.28" departDelay="0.61" arrival="148.00" arrivalLane="junctionNorth_0" arrivalPos="492.80" arrivalSpeed="27.27" duration="52.00" routeLength="995.01" waitingTime="0.00" waitingCount="0" stopTime="0.00" timeLoss="15.36" rerouteNo="0" devices="tripinfo_southNorth.8 ssm_southNorth.8" vType="carCustom" speedFactor="0.92" vaporized=""/>
    <tripinfo id="westEastBottom0.8" depart="86.00" departLane="westJunction_0" departPos="5.10" departSpeed="18.63" departDelay="0.84" arrival="150.00" arrivalLane="junctionEast_1" arrivalPos="492.80" arrivalSpeed="27.54" duration="64.00" routeLength="994.90" waitingTime="0.00" waitingCount="0" stopTime="0.00" timeLoss="27.44" rerouteNo="0" devices="tripinfo_westEastBottom0.8 ssm_westEastBottom0.8" vType="carCustom" speedFactor="0.81" vaporized=""/>
    <tripinfo id="southEast.7" depart="99.00" departLane="southJunction_0" departPos="5.10" departSpeed="27.66" departDelay="0.10" arrival="153.00" arrivalLane="junctionEast_1" arrivalPos="492.80" arrivalSpeed="26.86" duration="54.00" routeLength="989.53" waitingTime="0.00" waitingCount="0" stopTime="0.00" timeLoss="17.57" rerouteNo="0" devices="tripinfo_southEast.7 ssm_southEast.7" vType="carCustom" speedFactor="1.03" vaporized=""/>
    <tripinfo id="southNorth.9" depart="98.00" departLane="southJunction_1" departPos="5.10" departSpeed="25.62" departDelay="1.78" arrival="155.00" arrivalLane="junctionNorth_0" arrivalPos="492.80" arrivalSpeed="27.67" duration="57.00" routeLength="995.01" waitingTime="2.00" waitingCount="1" stopTime="0.00" timeLoss="20.24" rerouteNo="0" devices="tripinfo_southNorth.9 ssm_southNorth.9" vType="carCustom" speedFactor="1.03" vaporized=""/>
    <tripinfo id="westEastTop.18" depart="79.00" departLane="westJunction_1" departPos="5.10" departSpeed="14.55" departDelay="0.84" arrival="157.00" arrivalLane="junctionEast_1" arrivalPos="492.80" arrivalSpeed="27.09" duration="78.00" routeLength="994.90" waitingTime="4.00" waitingCount="1" stopTime="0.00" timeLoss="41.33" rerouteNo="0" devices="tripinfo_westEastTop.18 ssm_westEastTop.18" vType="carCustom" speedFactor="0.97" vaporized=""/>
    <tripinfo id="southNorth.10" depart="101.00" departLane="southJunction_1" departPos="5.10" departSpeed="21.30" departDelay="0.08" arrival="159.00" arrivalLane="junctionNorth_0" arrivalPos="492.80" arrivalSpeed="26.69" duration="58.00" routeLength="995.01" waitingTime="0.00" waitingCount="0" stopTime="0.00" timeLoss="21.28" rerouteNo="0" devices="tripinfo_southNorth.10 ssm_southNorth.10" vType="carCustom" speedFactor="0.96" vaporized=""/>
    <tripinfo id="westEastTop.19" depart="81.00" departLane="westJunction_1" departPos="5.10" departSpeed="16.26" departDelay="1.12" arrival="160.00" arrivalLane="junctionEast_1" arrivalPos="492.80" arrivalSpeed="27.19" duration="79.00" routeLength="994.90" waitingTime="1.00" waitingCount="1" stopTime="0.00" timeLoss="42.70" rerouteNo="0" devices="tripinfo_westEastTop.19 ssm_westEastTop.19" vType="carCustom" speedFactor="0.99" vaporized=""/>
    <tripinfo id="westEastBottom0.10" depart="110.00" departLane="westJunction_0" departPos="5.10" departSpeed="17.08" departDelay="0.39" arrival="163.00" arrivalLane="junctionEast_1" arrivalPos="492.80" arrivalSpeed="26.85" duration="53.00" routeLength="994.90" waitingTime="0.00" waitingCount="0" stopTime="0.00" timeLoss="17.15" rerouteNo="0" devices="tripinfo_westEastBottom0.10 ssm_westEastBottom0.10" vType="carCustom" speedFactor="0.99" vaporized=""/>
    <tripinfo id="westEastTop.20" depart="83.00" departLane="westJunction_1" departPos="5.10" departSpeed="12.50" departDelay="2.81" arrival="165.00" arrivalLane="junctionEast_0" arrivalPos="492.80" arrivalSpeed="26.88" duration="82.00" routeLength="994.90" waitingTime="2.00" waitingCount="1" stopTime="0.00" timeLoss="45.74" rerouteNo="0" devices="tripinfo_westEastTop.20 ssm_westEastTop.20" vType="carCustom" speedFactor="0.90" vaporized=""/>
    <tripinfo id="westEastBottom0.11" depart="112.00" departLane="westJunction_0" departPos="5.10" departSpeed="20.80" departDelay="0.11" arrival="167.00" arrivalLane="junctionEast_1" arrivalPos="492.80" arrivalSpeed="27.55" duration="55.00" routeLength="994.90" waitingTime="0.00" waitingCount="0" stopTime="0.00" timeLoss="18.54" rerouteNo="0" devices="tripinfo_westEastBottom0.11 ssm_westEastBottom0.11" vType="carCustom" speedFactor="0.94" vaporized=""/>
    <tripinfo id="westEastBottom0.9" depart="95.00" departLane="westJunction_0" departPos="5.10" departSpeed="16.64" departDelay="0.29" arrival="170.00" arrivalLane="junctionEast_1" arrivalPos="492.80" arrivalSpeed="27.27" duration="75.00" routeLength="994.90" waitingTime="0.00" waitingCount="0" stopTime="0.00" timeLoss="38.97" rerouteNo="0" devices="tripinfo_westEastBottom0.9 ssm_westEastBottom0.9" vType="carCustom" speedFactor="1.10" vaporized=""/>
    <tripinfo id="southNorth.11" depart="111.00" departLane="southJunction_1" departPos="5.10" departSpeed="21.41" departDelay="0.62" arrival="173.00" arrivalLane="junctionNorth_0" arrivalPos="492.80" arrivalSpeed="27.24" duration="62.00" routeLength="995.01" waitingTime="9.00" waitingCount="1" stopTime="0.00" timeLoss="25.38" rerouteNo="0" devices="tripinfo_southNorth.11 ssm_southNorth.11" vType="carCustom" speedFactor="0.97" vaporized=""/>
    <tripinfo id="westEastTop.21" depart="99.00" departLane="westJunction_1" departPos="5.10" departSpeed="22.05" departDelay="0.52" arrival="174.00" arrivalLane="junctionEast_1" arrivalPos="492.80" arrivalSpeed="26.72" duration="75.00" routeLength="994.90" waitingTime="0.00" waitingCount="0" stopTime="0.00" timeLoss="38.26" rerouteNo="0" devices="tripinfo_westEastTop.21 ssm_westEastTop.21" vType="carCustom" speedFactor="1.04" vaporized=""/>
    <tripinfo id="southEast.8" depart="121.00" departLane="southJunction_0" departPos="5.10" departSpeed="12.83" departDelay="0.41" arrival="175.00" arrivalLane="junctionEast_0" arrivalPos="492.80" arrivalSpeed="26.99" duration="54.00" routeLength="989.53" waitingTime="0.00" waitingCount="0" stopTime="0.00" timeLoss="15.98" rerouteNo="0" devices="tripinfo_southEast.8 ssm_southEast.8" vType="carCustom" speedFactor="1.01" vaporized=""/>
    <tripinfo id="westEastTop.22" depart="101.00" departLane="westJunction_1" departPos="5.10" departSpeed="21.36" departDelay="1.95" arrival="177.00" arrivalLane="junctionEast_1" arrivalPos="492.80" arrivalSpeed="27.48" duration="76.00" routeLength="994.90" waitingTime="0.00" waitingCount="0" stopTime="0.00" timeLoss="39.54" rerouteNo="0" devices="tripinfo_westEastTop.22 ssm_westEastTop.22" vType="carCustom" speedFactor="0.97" vaporized=""/>
    <tripinfo id="southNorth.12" depart="127.00" departLane="southJunction_1" departPos="5.10" departSpeed="18.15" departDelay="0.88" arrival="177.00" arrivalLane="junctionNorth_0" arrivalPos="492.80" arrivalSpeed="26.66" duration="50.00" routeLength="995.01" waitingTime="0.00" waitingCount="0" stopTime="0.00" timeLoss="13.41" rerouteNo="0" devices="tripinfo_southNorth.12 ssm_southNorth.12" vType="carCustom" speedFactor="0.99" vaporized=""/>
    <tripinfo id="westEastTop.23" depart="106.00" departLane="westJunction_1" departPos="5.10" departSpeed="17.31" departDelay="0.42" arrival="180.00" arrivalLane="junctionEast_1" arrivalPos="492.80" arrivalSpeed="26.77" duration="74.00" routeLength="994.90" waitingTime="0.00" waitingCount="0" stopTime="0.00" timeLoss="37.82" rerouteNo="0" devices="tripinfo_westEastTop.23 ssm_westEastTop.23" vType="carCustom" speedFactor="1.13" vaporized=""/>
    <tripinfo id="westEastTop.24" depart="113.00" departLane="westJunction_1" departPos="5.10" departSpeed="18.79" departDelay="0.96" arrival="184.00" arrivalLane="junctionEast_1" arrivalPos="492.80" arrivalSpeed="26.79" duration="71.00" routeLength="994.90" waitingTime="1.00" waitingCount="1" stopTime="0.00" timeLoss="34.24" rerouteNo="0" devices="tripinfo_westEastTop.24 ssm_westEastTop.24" vType="carCustom" speedFactor="0.91" vaporized=""/>
    <tripinfo id="westEastTop.25" depart="118.00" departLane="westJunction_1" departPos="5.10" departSpeed="22.02" departDelay="0.02" arrival="187.00" arrivalLane="junctionEast_1" arrivalPos="492.80" arrivalSpeed="27.13" duration="69.00" routeLength="994.90" waitingTime="0.00" waitingCount="0" stopTime="0.00" timeLoss="32.63" rerouteNo="0" devices="tripinfo_westEastTop.25 ssm_westEastTop.25" vType="carCustom" speedFactor="0.91" vaporized=""/>
    <tripinfo id="southEast.9" depart="137.00" departLane="southJunction_0" departPos="5.10" departSpeed="21.93" departDelay="0.71" arrival="188.00" arrivalLane="junctionEast_0" arrivalPos="492.80" arrivalSpeed="27.24" duration="51.00" routeLength="989.53" waitingTime="0.00" waitingCount="0" stopTime="0.00" timeLoss="14.16" rerouteNo="0" devices="tripinfo_southEast.9 ssm_southEast.9" vType="carCustom" speedFactor="0.84" vaporized=""/>
    <tripinfo id="westEastTop.26" depart="120.00" departLane="westJunction_1" departPos="5.10" departSpeed="23.45" departDelay="1.71" arrival="190.00" arrivalLane="junctionEast_1" arrivalPos="492.80" arrivalSpeed="27.21" duration="70.00" routeLength="994.90" waitingTime="0.00" waitingCount="0" stopTime="0.00" timeLoss="33.99" rerouteNo="0" devices="tripinfo_westEastTop.26 ssm_westEastTop.26" vType="carCustom" speedFactor="0.92" vaporized=""/>
    <tripinfo id="westEastTop.27" depart="122.00" departLane="westJunction_1" departPos="5.10" departSpeed="18.06" departDelay="1.45" arrival="194.00" arrivalLane="junctionEast_1" arrivalPos="492.80" arrivalSpeed="27.75" duration="72.00" routeLength="994.90" waitingTime="0.00" waitingCount="0" stopTime="0.00" timeLoss="35.30" rerouteNo="0" devices="tripinfo_westEastTop.27 ssm_westEastTop.27" vType="carCustom" speedFactor="1.29" vaporized=""/>