<?xml version="1.0" encoding="UTF-8"?>

<!-- generated on 2025-04-29 09:50:36 by Eclipse SUMO sumo Version 1.20.0
<configuration xmlns:xsi="http://www.w3.org/2001/XMLSchema-instance" xsi:noNamespaceSchemaLocation="http://sumo.dlr.de/xsd/sumoConfiguration.xsd">

    <input>
        <net-file value="nets/2lane_unprotected_right/2lane_unprotected_right.net.xml"/>
        <route-files value="nets/2lane_unprotected_right/2lane_unprotected_right.rou.xml"/>
    </input>

    <output>
        <tripinfo-output value="traces/transs50f0.5_s50_f1_random/0233_tripinfo.xml"/>
        <collision-output value="traces/transs50f0.5_s50_f1_random/0233_collisions.xml"/>
        <statistic-output value="traces/transs50f0.5_s50_f1_random/0233_statistics.xml"/>
    </output>

    <processing>
        <collision.action value="teleport"/>
        <collision.check-junctions value="true"/>
        <time-to-teleport value="-1"/>
        <waiting-time-memory value="1000"/>
        <max-depart-delay value="-1"/>
        <default.speeddev value="0.1"/>
    </processing>

    <report>
        <no-warnings value="true"/>
    </report>

    <ssm_device>
        <device.ssm.probability value="1.0"/>
        <device.ssm.measures value="BR"/>
        <device.ssm.file value="/Users/finn/Code/CausalKnowledgeTransfer-4-SafeRL/traces/transs50f0.5_s50_f1_random/0233_ssm.xml"/>
    </ssm_device>

    <traci_server>
        <remote-port value="65283"/>
    </traci_server>

    <random_number>
        <random value="true"/>
    </random_number>

</configuration>
-->

<tripinfos xmlns:xsi="http://www.w3.org/2001/XMLSchema-instance" xsi:noNamespaceSchemaLocation="http://sumo.dlr.de/xsd/tripinfo_file.xsd">
    <tripinfo id="westEastBottom0.0" depart="2.00" departLane="westJunction_0" departPos="5.10" departSpeed="22.22" departDelay="0.54" arrival="49.00" arrivalLane="junctionEast_0" arrivalPos="492.80" arrivalSpeed="21.21" duration="47.00" routeLength="994.90" waitingTime="0.00" waitingCount="0" stopTime="0.00" timeLoss="1.33" rerouteNo="0" devices="tripinfo_westEastBottom0.0 ssm_westEastBottom0.0" vType="carCustom" speedFactor="1.09" vaporized=""/>
    <tripinfo id="westEastTop.0" depart="3.00" departLane="westJunction_1" departPos="5.10" departSpeed="22.22" departDelay="1.00" arrival="50.00" arrivalLane="junctionEast_1" arrivalPos="492.80" arrivalSpeed="21.86" duration="47.00" routeLength="994.90" waitingTime="0.00" waitingCount="0" stopTime="0.00" timeLoss="1.39" rerouteNo="0" devices="tripinfo_westEastTop.0 ssm_westEastTop.0" vType="carCustom" speedFactor="1.04" vaporized=""/>
    <tripinfo id="southNorth.0" depart="5.00" departLane="southJunction_1" departPos="5.10" departSpeed="22.22" departDelay="0.66" arrival="53.00" arrivalLane="junctionNorth_0" arrivalPos="492.80" arrivalSpeed="22.12" duration="48.00" routeLength="995.01" waitingTime="0.00" waitingCount="0" stopTime="0.00" timeLoss="2.97" rerouteNo="0" devices="tripinfo_southNorth.0 ssm_southNorth.0" vType="carCustom" speedFactor="0.95" vaporized=""/>
    <tripinfo id="southEast.0" depart="6.00" departLane="southJunction_0" departPos="5.10" departSpeed="22.22" departDelay="0.32" arrival="59.00" arrivalLane="junctionEast_0" arrivalPos="492.80" arrivalSpeed="21.68" duration="53.00" routeLength="989.53" waitingTime="0.00" waitingCount="0" stopTime="0.00" timeLoss="6.67" rerouteNo="0" devices="tripinfo_southEast.0 ssm_southEast.0" vType="carCustom" speedFactor="0.85" vaporized=""/>
    <tripinfo id="westEastTop.1" depart="13.00" departLane="westJunction_1" departPos="5.10" departSpeed="21.40" departDelay="0.14" arrival="63.00" arrivalLane="junctionEast_1" arrivalPos="492.80" arrivalSpeed="21.45" duration="50.00" routeLength="994.90" waitingTime="0.00" waitingCount="0" stopTime="0.00" timeLoss="4.52" rerouteNo="0" devices="tripinfo_westEastTop.1 ssm_westEastTop.1" vType="carCustom" speedFactor="0.91" vaporized=""/>
    <tripinfo id="southNorth.1" depart="18.00" departLane="southJunction_1" departPos="5.10" departSpeed="21.17" departDelay="0.20" arrival="67.00" arrivalLane="junctionNorth_0" arrivalPos="492.80" arrivalSpeed="21.68" duration="49.00" routeLength="995.01" waitingTime="0.00" waitingCount="0" stopTime="0.00" timeLoss="3.63" rerouteNo="0" devices="tripinfo_southNorth.1 ssm_southNorth.1" vType="carCustom" speedFactor="0.83" vaporized=""/>
    <tripinfo id="westEastTop.2" depart="16.00" departLane="westJunction_1" departPos="5.10" departSpeed="18.67" departDelay="0.82" arrival="74.00" arrivalLane="junctionEast_1" arrivalPos="492.80" arrivalSpeed="21.36" duration="58.00" routeLength="994.90" waitingTime="0.00" waitingCount="0" stopTime="0.00" timeLoss="13.22" rerouteNo="0" devices="tripinfo_westEastTop.2 ssm_westEastTop.2" vType="carCustom" speedFactor="1.02" vaporized=""/>
    <tripinfo id="westEastBottom0.1" depart="22.00" departLane="westJunction_0" departPos="5.10" departSpeed="21.21" departDelay="0.98" arrival="75.00" arrivalLane="junctionEast_0" arrivalPos="492.80" arrivalSpeed="21.02" duration="53.00" routeLength="994.90" waitingTime="0.00" waitingCount="0" stopTime="0.00" timeLoss="7.87" rerouteNo="0" devices="tripinfo_westEastBottom0.1 ssm_westEastBottom0.1" vType="carCustom" speedFactor="1.07" vaporized=""/>
    <tripinfo id="southNorth.2" depart="20.00" departLane="southJunction_1" departPos="5.10" departSpeed="20.80" departDelay="0.06" arrival="80.00" arrivalLane="junctionNorth_0" arrivalPos="492.80" arrivalSpeed="22.18" duration="60.00" routeLength="995.01" waitingTime="0.00" waitingCount="0" stopTime="0.00" timeLoss="14.25" rerouteNo="0" devices="tripinfo_southNorth.2 ssm_southNorth.2" vType="carCustom" speedFactor="1.11" vaporized=""/>
    <tripinfo id="southEast.1" depart="18.00" departLane="southJunction_0" departPos="5.10" departSpeed="21.38" departDelay="0.91" arrival="84.00" arrivalLane="junctionEast_0" arrivalPos="492.80" arrivalSpeed="21.83" duration="66.00" routeLength="989.53" waitingTime="0.00" waitingCount="0" stopTime="0.00" timeLoss="20.53" rerouteNo="0" devices="tripinfo_southEast.1 ssm_southEast.1" vType="carCustom" speedFactor="1.07" vaporized=""/>
    <tripinfo id="westEastTop.3" depart="20.00" departLane="westJunction_1" departPos="5.10" departSpeed="13.03" departDelay="0.64" arrival="86.00" arrivalLane="junctionEast_1" arrivalPos="492.80" arrivalSpeed="22.09" duration="66.00" routeLength="994.90" waitingTime="0.00" waitingCount="0" stopTime="0.00" timeLoss="20.57" rerouteNo="0" devices="tripinfo_westEastTop.3 ssm_westEastTop.3" vType="carCustom" speedFactor="0.86" vaporized=""/>
    <tripinfo id="southEast.2" depart="22.00" departLane="southJunction_0" departPos="5.10" departSpeed="19.44" departDelay="0.56" arrival="94.00" arrivalLane="junctionEast_0" arrivalPos="492.80" arrivalSpeed="22.09" duration="72.00" routeLength="989.53" waitingTime="0.00" waitingCount="0" stopTime="0.00" timeLoss="25.51" rerouteNo="0" devices="tripinfo_southEast.2 ssm_southEast.2" vType="carCustom" speedFactor="0.89" vaporized=""/>
    <tripinfo id="westEastTop.4" depart="22.00" departLane="westJunction_1" departPos="5.10" departSpeed="10.44" departDelay="1.92" arrival="96.00" arrivalLane="junctionEast_1" arrivalPos="492.80" arrivalSpeed="21.80" duration="74.00" routeLength="994.90" waitingTime="0.00" waitingCount="0" stopTime="0.00" timeLoss="29.22" rerouteNo="0" devices="tripinfo_westEastTop.4 ssm_westEastTop.4" vType="carCustom" speedFactor="0.94" vaporized=""/>
    <tripinfo id="southNorth.3" depart="42.00" departLane="southJunction_1" departPos="5.10" departSpeed="15.18" departDelay="0.47" arrival="98.00" arrivalLane="junctionNorth_0" arrivalPos="492.80" arrivalSpeed="21.79" duration="56.00" routeLength="995.01" waitingTime="0.00" waitingCount="0" stopTime="0.00" timeLoss="11.06" rerouteNo="0" devices="tripinfo_southNorth.3 ssm_southNorth.3" vType="carCustom" speedFactor="0.89" vaporized=""/>
    <tripinfo id="southEast.3" depart="39.00" departLane="southJunction_0" departPos="5.10" departSpeed="14.00" departDelay="0.74" arrival="105.00" arrivalLane="junctionEast_0" arrivalPos="492.80" arrivalSpeed="21.49" duration="66.00" routeLength="989.53" waitingTime="0.00" waitingCount="0" stopTime="0.00" timeLoss="20.12" rerouteNo="0" devices="tripinfo_southEast.3 ssm_southEast.3" vType="carCustom" speedFactor="0.96" vaporized=""/>
    <tripinfo id="westEastTop.5" depart="46.00" departLane="westJunction_1" departPos="5.10" departSpeed="11.58" departDelay="0.82" arrival="107.00" arrivalLane="junctionEast_1" arrivalPos="492.80" arrivalSpeed="21.22" duration="61.00" routeLength="994.90" waitingTime="0.00" waitingCount="0" stopTime="0.00" timeLoss="15.55" rerouteNo="0" devices="tripinfo_westEastTop.5 ssm_westEastTop.5" vType="carCustom" speedFactor="1.12" vaporized=""/>
    <tripinfo id="southEast.4" depart="42.00" departLane="southJunction_0" departPos="5.10" departSpeed="17.98" departDelay="0.22" arrival="115.00" arrivalLane="junctionEast_0" arrivalPos="492.80" arrivalSpeed="21.20" duration="73.00" routeLength="989.53" waitingTime="0.00" waitingCount="0" stopTime="0.00" timeLoss="27.47" rerouteNo="0" devices="tripinfo_southEast.4 ssm_southEast.4" vType="carCustom" speedFactor="0.99" vaporized=""/>
    <tripinfo id="westEastTop.6" depart="48.00" departLane="westJunction_1" departPos="5.10" departSpeed="15.49" departDelay="1.57" arrival="117.00" arrivalLane="junctionEast_1" arrivalPos="492.80" arrivalSpeed="20.93" duration="69.00" routeLength="994.90" waitingTime="0.00" waitingCount="0" stopTime="0.00" timeLoss="23.83" rerouteNo="0" devices="tripinfo_westEastTop.6 ssm_westEastTop.6" vType="carCustom" speedFactor="0.98" vaporized=""/>
    <tripinfo id="southNorth.4" depart="53.00" departLane="southJunction_1" departPos="5.10" departSpeed="9.88" departDelay="0.53" arrival="123.00" arrivalLane="junctionNorth_0" arrivalPos="492.80" arrivalSpeed="21.27" duration="70.00" routeLength="995.01" waitingTime="0.00" waitingCount="0" stopTime="0.00" timeLoss="24.78" rerouteNo="0" devices="tripinfo_southNorth.4 ssm_southNorth.4" vType="carCustom" speedFactor="0.93" vaporized=""/>
    <tripinfo id="southEast.6" depart="50.00" departLane="southJunction_0" departPos="5.10" departSpeed="7.68" departDelay="0.47" arrival="124.00" arrivalLane="junctionEast_0" arrivalPos="492.80" arrivalSpeed="22.10" duration="74.00" routeLength="989.53" waitingTime="0.00" waitingCount="0" stopTime="0.00" timeLoss="28.73" rerouteNo="0" devices="tripinfo_southEast.6 ssm_southEast.6" vType="carCustom" speedFactor="1.05" vaporized=""/>
    <tripinfo id="westEastBottom0.2" depart="65.00" departLane="westJunction_0" departPos="5.10" departSpeed="22.22" departDelay="0.89" arrival="129.00" arrivalLane="junctionEast_1" arrivalPos="492.80" arrivalSpeed="22.09" duration="64.00" routeLength="994.90" waitingTime="3.00" waitingCount="1" stopTime="0.00" timeLoss="18.41" rerouteNo="0" devices="tripinfo_westEastBottom0.2 ssm_westEastBottom0.2" vType="carCustom" speedFactor="0.99" vaporized=""/>
    <tripinfo id="southEast.5" depart="45.00" departLane="southJunction_0" departPos="5.10" departSpeed="13.65" departDelay="0.69" arrival="133.00" arrivalLane="junctionEast_0" arrivalPos="492.80" arrivalSpeed="20.93" duration="88.00" routeLength="989.53" waitingTime="0.00" waitingCount="0" stopTime="0.00" timeLoss="42.12" rerouteNo="0" devices="tripinfo_southEast.5 ssm_southEast.5" vType="carCustom" speedFactor="1.05" vaporized=""/>
    <tripinfo id="southNorth.5" depart="75.00" departLane="southJunction_1" departPos="5.10" departSpeed="16.53" departDelay="0.45" arrival="134.00" arrivalLane="junctionNorth_0" arrivalPos="492.80" arrivalSpeed="21.41" duration="59.00" routeLength="995.01" waitingTime="0.00" waitingCount="0" stopTime="0.00" timeLoss="13.50" rerouteNo="0" devices="tripinfo_southNorth.5 ssm_southNorth.5" vType="carCustom" speedFactor="1.01" vaporized=""/>
    <tripinfo id="westEastBottom0.3" depart="69.00" departLane="westJunction_0" departPos="5.10" departSpeed="19.33" departDelay="0.69" arrival="138.00" arrivalLane="junctionEast_1" arrivalPos="492.80" arrivalSpeed="21.18" duration="69.00" routeLength="994.90" waitingTime="0.00" waitingCount="0" stopTime="0.00" timeLoss="23.78" rerouteNo="0" devices="tripinfo_westEastBottom0.3 ssm_westEastBottom0.3" vType="carCustom" speedFactor="1.06" vaporized=""/>
    <tripinfo id="southEast.7" depart="59.00" departLane="southJunction_0" departPos="5.10" departSpeed="10.26" departDelay="0.90" arrival="143.00" arrivalLane="junctionEast_0" arrivalPos="492.80" arrivalSpeed="21.60" duration="84.00" routeLength="989.53" waitingTime="0.00" waitingCount="0" stopTime="0.00" timeLoss="37.12" rerouteNo="0" devices="tripinfo_southEast.7 ssm_southEast.7" vType="carCustom" speedFactor="0.83" vaporized=""/>
    <tripinfo id="southNorth.6" depart="79.00" departLane="southJunction_1" departPos="5.10" departSpeed="19.27" departDelay="0.20" arrival="144.00" arrivalLane="junctionNorth_0" arrivalPos="492.80" arrivalSpeed="21.35" duration="65.00" routeLength="995.01" waitingTime="0.00" waitingCount="0" stopTime="0.00" timeLoss="20.06" rerouteNo="0" devices="tripinfo_southNorth.6 ssm_southNorth.6" vType="carCustom" speedFactor="1.16" vaporized=""/>
    <tripinfo id="westEastTop.7" depart="50.00" departLane="westJunction_1" departPos="5.10" departSpeed="12.60" departDelay="3.55" arrival="147.00" arrivalLane="junctionEast_1" arrivalPos="492.80" arrivalSpeed="21.99" duration="97.00" routeLength="994.90" waitingTime="0.00" waitingCount="0" stopTime="0.00" timeLoss="51.39" rerouteNo="0" devices="tripinfo_westEastTop.7 ssm_westEastTop.7" vType="carCustom" speedFactor="1.04" vaporized=""/>
    <tripinfo id="southEast.8" depart="74.00" departLane="southJunction_0" departPos="5.10" departSpeed="11.46" departDelay="0.06" arrival="152.00" arrivalLane="junctionEast_0" arrivalPos="492.80" arrivalSpeed="21.34" duration="78.00" routeLength="989.53" waitingTime="0.00" waitingCount="0" stopTime="0.00" timeLoss="31.58" rerouteNo="0" devices="tripinfo_southEast.8 ssm_southEast.8" vType="carCustom" speedFactor="0.90" vaporized=""/>
    <tripinfo id="southNorth.7" depart="81.00" departLane="southJunction_1" departPos="5.10" departSpeed="16.38" departDelay="0.79" arrival="154.00" arrivalLane="junctionNorth_0" arrivalPos="492.80" arrivalSpeed="21.86" duration="73.00" routeLength="995.01" waitingTime="0.00" waitingCount="0" stopTime="0.00" timeLoss="28.17" rerouteNo="0" devices="tripinfo_southNorth.7 ssm_southNorth.7" vType="carCustom" speedFactor="1.07" vaporized=""/>
    <tripinfo id="westEastTop.8" depart="52.00" departLane="westJunction_1" departPos="5.10" departSpeed="9.71" departDelay="2.43" arrival="156.00" arrivalLane="junctionEast_1" arrivalPos="492.80" arrivalSpeed="22.06" duration="104.00" routeLength="994.90" waitingTime="1.00" waitingCount="1" stopTime="0.00" timeLoss="58.34" rerouteNo="0" devices="tripinfo_westEastTop.8 ssm_westEastTop.8" vType="carCustom" speedFactor="0.86" vaporized=""/>
    <tripinfo id="westEastBottom0.4" depart="82.00" departLane="westJunction_0" departPos="5.10" departSpeed="13.44" departDelay="0.90" arrival="160.00" arrivalLane="junctionEast_0" arrivalPos="492.80" arrivalSpeed="21.66" duration="78.00" routeLength="994.90" waitingTime="4.00" waitingCount="1" stopTime="0.00" timeLoss="32.81" rerouteNo="0" devices="tripinfo_westEastBottom0.4 ssm_westEastBottom0.4" vType="carCustom" speedFactor="0.91" vaporized=""/>
    <tripinfo id="southEast.9" depart="78.00" departLane="southJunction_0" departPos="5.10" departSpeed="14.76" departDelay="0.30" arrival="164.00" arrivalLane="junctionEast_1" arrivalPos="492.80" arrivalSpeed="21.38" duration="86.00" routeLength="989.53" waitingTime="0.00" waitingCount="0" stopTime="0.00" timeLoss="40.10" rerouteNo="0" devices="tripinfo_southEast.9 ssm_southEast.9" vType="carCustom" speedFactor="1.08" vaporized=""/>
    <tripinfo id="southNorth.8" depart="89.00" departLane="southJunction_1" departPos="5.10" departSpeed="7.81" departDelay="0.89" arrival="165.00" arrivalLane="junctionNorth_0" arrivalPos="492.80" arrivalSpeed="22.09" duration="76.00" routeLength="995.01" waitingTime="0.00" waitingCount="0" stopTime="0.00" timeLoss="30.32" rerouteNo="0" devices="tripinfo_southNorth.8 ssm_southNorth.8" vType="carCustom" speedFactor="0.93" vaporized=""/>
    <tripinfo id="westEastBottom0.5" depart="84.00" departLane="westJunction_0" departPos="5.10" departSpeed="16.05" departDelay="1.71" arrival="169.00" arrivalLane="junctionEast_0" arrivalPos="492.80" arrivalSpeed="21.02" duration="85.00" routeLength="994.90" waitingTime="0.00" waitingCount="0" stopTime="0.00" timeLoss="39.34" rerouteNo="0" devices="tripinfo_westEastBottom0.5 ssm_westEastBottom0.5" vType="carCustom" speedFactor="1.02" vaporized=""/>
    <tripinfo id="westEastTop.9" depart="59.00" departLane="westJunction_1" departPos="5.10" departSpeed="4.52" departDelay="0.36" arrival="172.00" arrivalLane="junctionEast_1" arrivalPos="492.80" arrivalSpeed="20.97" duration="113.00" routeLength="994.90" waitingTime="2.00" waitingCount="1" stopTime="0.00" timeLoss="67.79" rerouteNo="0" devices="tripinfo_westEastTop.9 ssm_westEastTop.9" vType="carCustom" speedFactor="1.03" vaporized=""/>
    <tripinfo id="southEast.10" depart="90.00" departLane="southJunction_0" departPos="5.10" departSpeed="11.05" departDelay="0.10" arrival="177.00" arrivalLane="junctionEast_0" arrivalPos="492.80" arrivalSpeed="21.35" duration="87.00" routeLength="989.53" waitingTime="0.00" waitingCount="0" stopTime="0.00" timeLoss="41.18" rerouteNo="0" devices="tripinfo_southEast.10 ssm_southEast.10" vType="carCustom" speedFactor="1.14" vaporized=""/>
    <tripinfo id="southNorth.9" depart="92.00" departLane="southJunction_1" departPos="5.10" departSpeed="9.34" departDelay="0.55" arrival="178.00" arrivalLane="junctionNorth_0" arrivalPos="492.80" arrivalSpeed="22.10" duration="86.00" routeLength="995.01" waitingTime="2.00" waitingCount="1" stopTime="0.00" timeLoss="41.07" rerouteNo="0" devices="tripinfo_southNorth.9 ssm_southNorth.9" vType="carCustom" speedFactor="1.04" vaporized=""/>
    <tripinfo id="westEastTop.10" depart="63.00" departLane="westJunction_1" departPos="5.10" departSpeed="5.64" departDelay="0.23" arrival="180.00" arrivalLane="junctionEast_1" arrivalPos="492.80" arrivalSpeed="21.12" duration="117.00" routeLength="994.90" waitingTime="2.00" waitingCount="1" stopTime="0.00" timeLoss="71.97" rerouteNo="0" devices="tripinfo_westEastTop.10 ssm_westEastTop.10" vType="carCustom" speedFactor="1.03" vaporized=""/>
    <tripinfo id="westEastBottom0.6" depart="92.00" departLane="westJunction_0" departPos="5.10" departSpeed="9.44" departDelay="0.48" arrival="184.00" arrivalLane="junctionEast_0" arrivalPos="492.80" arrivalSpeed="21.83" duration="92.00" routeLength="994.90" waitingTime="0.00" waitingCount="0" stopTime="0.00" timeLoss="47.16" rerouteNo="0" devices="tripinfo_westEastBottom0.6 ssm_westEastBottom0.6" vType="carCustom" speedFactor="1.03" vaporized=""/>
    <tripinfo id="westEastTop.11" depart="76.00" departLane="westJunction_1" departPos="5.10" departSpeed="5.42" departDelay="0.55" arrival="188.00" arrivalLane="junctionEast_1" arrivalPos="492.80" arrivalSpeed="21.51" duration="112.00" routeLength="994.90" waitingTime="0.00" waitingCount="0" stopTime="0.00" timeLoss="66.64" rerouteNo="0" devices="tripinfo_westEastTop.11 ssm_westEastTop.11" vType="carCustom" speedFactor="0.90" vaporized=""/>
    <tripinfo id="southNorth.10" depart="94.00" departLane="southJunction_1" departPos="5.10" departSpeed="6.75" departDelay="0.75" arrival="190.00" arrivalLane="junctionNorth_0" arrivalPos="492.80" arrivalSpeed="21.31" duration="96.00" routeLength="995.01" waitingTime="1.00" waitingCount="1" stopTime="0.00" timeLoss="50.62" rerouteNo="0" devices="tripinfo_southNorth.10 ssm_southNorth.10" vType="carCustom" speedFactor="1.08" vaporized=""/>
    <tripinfo id="southEast.11" depart="94.00" departLane="southJunction_0" departPos="5.10" departSpeed="12.37" departDelay="0.28" arrival="192.00" arrivalLane="junctionEast_0" arrivalPos="492.80" arrivalSpeed="21.96" duration="98.00" routeLength="989.53" waitingTime="0.00" waitingCount="0" stopTime="0.00" timeLoss="51.82" rerouteNo="0" devices="tripinfo_southEast.11 ssm_southEast.11" vType="carCustom" speedFactor="1.08" vaporized=""/>
    <tripinfo id="westEastTop.12" depart="83.00" departLane="westJunction_1" departPos="5.10" departSpeed="7.56" departDelay="0.06" arrival="196.00" arrivalLane="junctionEast_1" arrivalPos="492.80" arrivalSpeed="21.14" duration="113.00" routeLength="994.90" waitingTime="2.00" waitingCount="1" stopTime="0.00" timeLoss="67.45" rerouteNo="0" devices="tripinfo_westEastTop.12 ssm_westEastTop.12" vType="carCustom" speedFactor="1.02" vaporized=""/>
    <tripinfo id="westEastBottom0.7" depart="95.00" departLane="westJunction_0" departPos="5.10" departSpeed="9.70" departDelay="0.56" arrival="199.00" arrivalLane="junctionEast_0" arrivalPos="492.80" arrivalSpeed="21.09" duration="104.00" routeLength="994.90" waitingTime="0.00" waitingCount="0" stopTime="0.00" timeLoss="59.11" rerouteNo="0" devices="tripinfo_westEastBottom0.7 ssm_westEastBottom0.7" vType="carCustom" speedFactor="0.99" vaporized=""/>
    <tripinfo id="southNorth.11" depart="102.00" departLane="southJunction_1" departPos="5.10" departSpeed="5.04" departDelay="1.00" arrival="201.00" arrivalLane="junctionNorth_0" arrivalPos="492.80" arrivalSpeed="20.95" duration="99.00" routeLength="995.01" waitingTime="2.00" waitingCount="1" stopTime="0.00" timeLoss="53.55" rerouteNo="0" devices="tripinfo_southNorth.11 ssm_southNorth.11" vType="carCustom" speedFactor="1.07" vaporized=""/>
    <tripinfo id="westEastBottom0.9" depart="103.00" departLane="westJunction_0" departPos="5.10" departSpeed="8.20" departDelay="0.32" arrival="203.00" arrivalLane="junctionEast_1" arrivalPos="492.80" arrivalSpeed="21.82" duration="100.00" routeLength="994.90" waitingTime="0.00" waitingCount="0" stopTime="0.00" timeLoss="55.08" rerouteNo="0" devices="tripinfo_westEastBottom0.9 ssm_westEastBottom0.9" vType="carCustom" speedFactor="0.89" vaporized=""/>
    <tripinfo id="southEast.12" depart="98.00" departLane="southJunction_0" departPos="5.10" departSpeed="8.84" departDelay="0.13" arrival="207.00" arrivalLane="junctionEast_0" arrivalPos="492.80" arrivalSpeed="21.96" duration="109.00" routeLength="989.53" waitingTime="0.00" waitingCount="0" stopTime="0.00" timeLoss="62.49" rerouteNo="0" devices="tripinfo_southEast.12 ssm_southEast.12" vType="carCustom" speedFactor="1.12" vaporized=""/>
    <tripinfo id="westEastTop.13" depart="87.00" departLane="westJunction_1" departPos="5.10" departSpeed="7.17" departDelay="0.04" arrival="211.00" arrivalLane="junctionEast_1" arrivalPos="492.80" arrivalSpeed="22.22" duration="124.00" routeLength="994.90" waitingTime="0.00" waitingCount="0" stopTime="0.00" timeLoss="78.50" rerouteNo="0" devices="tripinfo_westEastTop.13 ssm_westEastTop.13" vType="carCustom" speedFactor="0.97" vaporized=""/>
    <tripinfo id="southEast.13" depart="102.00" departLane="southJunction_0" departPos="5.10" departSpeed="6.17" departDelay="0.83" arrival="214.00" arrivalLane="junctionEast_0" arrivalPos="492.80" arrivalSpeed="21.50" duration="112.00" routeLength="989.53" waitingTime="0.00" waitingCount="0" stopTime="0.00" timeLoss="65.60" rerouteNo="0" devices="tripinfo_southEast.13 ssm_southEast.13" vType="carCustom" speedFactor="1.12" vaporized=""/>
    <tripinfo id="westEastBottom0.8" depart="97.00" departLane="westJunction_0" departPos="5.10" departSpeed="7.07" departDelay="0.41" arrival="218.00" arrivalLane="junctionEast_1" arrivalPos="492.80" arrivalSpeed="20.93" duration="121.00" routeLength="994.90" waitingTime="0.00" waitingCount="0" stopTime="0.00" timeLoss="76.02" rerouteNo="0" devices="tripinfo_westEastBottom0.8 ssm_westEastBottom0.8" vType="carCustom" speedFactor="0.98" vaporized=""/>
    <tripinfo id="westEastBottom0.10" depart="109.00" departLane="westJunction_0" departPos="5.10" departSpeed="7.96" departDelay="0.78" arrival="221.00" arrivalLane="junctionEast_0" arrivalPos="492.80" arrivalSpeed="21.68" duration="112.00" routeLength="994.90" waitingTime="0.00" waitingCount="0" stopTime="0.00" timeLoss="66.70" rerouteNo="0" devices="tripinfo_westEastBottom0.10 ssm_westEastBottom0.10" vType="carCustom" speedFactor="0.89" vaporized=""/>
    <tripinfo id="southNorth.12" depart="116.00" departLane="southJunction_1" departPos="5.10" departSpeed="7.37" departDelay="0.03" arrival="224.00" arrivalLane="junctionNorth_0" arrivalPos="492.80" arrivalSpeed="20.93" duration="108.00" routeLength="995.01" waitingTime="16.00" waitingCount="1" stopTime="0.00" timeLoss="62.86" rerouteNo="0" devices="tripinfo_southNorth.12 ssm_southNorth.12" vType="carCustom" speedFactor="0.89" vaporized=""/>
    <tripinfo id="westEastTop.14" depart="104.00" departLane="westJunction_1" departPos="5.10" departSpeed="7.86" departDelay="0.58" arrival="226.00" arrivalLane="junctionEast_1" arrivalPos="492.80" arrivalSpeed="21.13" duration="122.00" routeLength="994.90" waitingTime="1.00" waitingCount="1" stopTime="0.00" timeLoss="76.34" rerouteNo="0" devices="tripinfo_westEastTop.14 ssm_westEastTop.14" vType="carCustom" speedFactor="1.10" vaporized=""/>
    <tripinfo id="southEast.14" depart="105.00" departLane="southJunction_0" departPos="5.10" departSpeed="5.05" departDelay="3.08" arrival="228.00" arrivalLane="junctionEast_0" arrivalPos="492.80" arrivalSpeed="21.13" duration="123.00" routeLength="989.53" waitingTime="0.00" waitingCount="0" stopTime="0.00" timeLoss="77.42" rerouteNo="0" devices="tripinfo_southEast.14 ssm_southEast.14" vType="carCustom" speedFactor="1.02" vaporized=""/>
    <tripinfo id="westEastTop.15" depart="108.00" departLane="westJunction_1" departPos="5.10" departSpeed="7.42" departDelay="0.18" arrival="233.00" arrivalLane="junctionEast_1" arrivalPos="492.80" arrivalSpeed="22.03" duration="125.00" routeLength="994.90" waitingTime="0.00" waitingCount="0" stopTime="0.00" timeLoss="79.48" rerouteNo="0" devices="tripinfo_westEastTop.15 ssm_westEastTop.15" vType="carCustom" speedFactor="1.00" vaporized=""/>
    <tripinfo id="westEastBottom0.11" depart="114.00" departLane="westJunction_0" departPos="5.10" departSpeed="7.52" departDelay="0.58" arrival="235.00" arrivalLane="junctionEast_0" arrivalPos="492.80" arrivalSpeed="21.60" duration="121.00" routeLength="994.90" waitingTime="0.00" waitingCount="0" stopTime="0.00" timeLoss="75.70" rerouteNo="0" devices="tripinfo_westEastBottom0.11 ssm_westEastBottom0.11" vType="carCustom" speedFactor="1.01" vaporized=""/>
    <tripinfo id="southNorth.13" depart="119.00" departLane="southJunction_1" departPos="5.10" departSpeed="5.34" departDelay="2.87" arrival="236.00" arrivalLane="junctionNorth_0" arrivalPos="492.80" arrivalSpeed="21.28" duration="117.00" routeLength="995.01" waitingTime="11.00" waitingCount="2" stopTime="0.00" timeLoss="71.68" rerouteNo="0" devices="tripinfo_southNorth.13 ssm_southNorth.13" vType="carCustom" speedFactor="0.87" vaporized=""/>
    <tripinfo id="westEastBottom0.12" depart="125.00" departLane="westJunction_0" departPos="5.10" departSpeed="6.93" departDelay="0.88" arrival="240.00" arrivalLane="junctionEast_1" arrivalPos="492.80" arrivalSpeed="21.16" duration="115.00" routeLength="994.90" waitingTime="0.00" waitingCount="0" stopTime="0.00" timeLoss="69.49" rerouteNo="0" devices="tripinfo_westEastBottom0.12 ssm_westEastBottom0.12" vType="carCustom" speedFactor="0.97" vaporized=""/>
    <tripinfo id="southEast.15" depart="109.00" departLane="southJunction_0" departPos="5.10" departSpeed="4.19" departDelay="3.36" arrival="242.00" arrivalLane="junctionEast_0" arrivalPos="492.80" arrivalSpeed="21.56" duration="133.00" routeLength="989.53" waitingTime="0.00" waitingCount="0" stopTime="0.00" timeLoss="86.82" rerouteNo="0" devices="tripinfo_southEast.15 ssm_southEast.15" vType="carCustom" speedFactor="0.91" vaporized=""/>
    <tripinfo id="westEastTop.16" depart="113.00" departLane="westJunction_1" departPos="5.10" departSpeed="5.48" departDelay="0.38" arrival="247.00" arrivalLane="junctionEast_1" arrivalPos="492.80" arrivalSpeed="21.36" duration="134.00" routeLength="994.90" waitingTime="0.00" waitingCount="0" stopTime="0.00" timeLoss="88.65" rerouteNo="0" devices="tripinfo_westEastTop.16 ssm_westEastTop.16" vType="carCustom" speedFactor="0.77" vaporized=""/>
    <tripinfo id="southNorth.14" depart="124.00" departLane="southJunction_1" departPos="5.10" departSpeed="4.97" departDelay="0.90" arrival="247.00" arrivalLane="junctionNorth_0" arrivalPos="492.80" arrivalSpeed="22.02" duration="123.00" routeLength="995.01" waitingTime="6.00" waitingCount="2" stopTime="0.00" timeLoss="77.35" rerouteNo="0" devices="tripinfo_southNorth.14 ssm_southNorth.14" vType="carCustom" speedFactor="1.10" vaporized=""/>
    <tripinfo id="southEast.16" depart="118.00" departLane="southJunction_0" departPos="5.10" departSpeed="5.56" departDelay="0.25" arrival="249.00" arrivalLane="junctionEast_0" arrivalPos="492.80" arrivalSpeed="21.97" duration="131.00" routeLength="989.53" waitingTime="1.00" waitingCount="1" stopTime="0.00" timeLoss="85.22" rerouteNo="0" devices="tripinfo_southEast.16 ssm_southEast.16" vType="carCustom" speedFactor="0.99" vaporized=""/>
    <tripinfo id="southEast.17" depart="126.00" departLane="southJunction_0" departPos="5.10" departSpeed="8.08" departDelay="0.07" arrival="254.00" arrivalLane="junctionEast_1" arrivalPos="492.80" arrivalSpeed="22.08" duration="128.00" routeLength="989.53" waitingTime="0.00" waitingCount="0" stopTime="0.00" timeLoss="81.60" rerouteNo="0" devices="tripinfo_southEast.17 ssm_southEast.17" vType="carCustom" speedFactor="0.93" vaporized=""/>