<?xml version="1.0" encoding="UTF-8"?>

<!-- generated on 2025-04-29 09:52:52 by Eclipse SUMO sumo Version 1.20.0
<configuration xmlns:xsi="http://www.w3.org/2001/XMLSchema-instance" xsi:noNamespaceSchemaLocation="http://sumo.dlr.de/xsd/sumoConfiguration.xsd">

    <input>
        <net-file value="nets/2lane_unprotected_right/2lane_unprotected_right.net.xml"/>
        <route-files value="nets/2lane_unprotected_right/2lane_unprotected_right.rou.xml"/>
    </input>

    <output>
        <tripinfo-output value="traces/transs50f0.5_s50_f1_random/0234_tripinfo.xml"/>
        <collision-output value="traces/transs50f0.5_s50_f1_random/0234_collisions.xml"/>
        <statistic-output value="traces/transs50f0.5_s50_f1_random/0234_statistics.xml"/>
    </output>

    <processing>
        <collision.action value="teleport"/>
        <collision.check-junctions value="true"/>
        <time-to-teleport value="-1"/>
        <waiting-time-memory value="1000"/>
        <max-depart-delay value="-1"/>
        <default.speeddev value="0.1"/>
    </processing>

    <report>
        <no-warnings value="true"/>
    </report>

    <ssm_device>
        <device.ssm.probability value="1.0"/>
        <device.ssm.measures value="BR"/>
        <device.ssm.file value="/Users/finn/Code/CausalKnowledgeTransfer-4-SafeRL/traces/transs50f0.5_s50_f1_random/0234_ssm.xml"/>
    </ssm_device>

    <traci_server>
        <remote-port value="65295"/>
    </traci_server>

    <random_number>
        <random value="true"/>
    </random_number>

</configuration>
-->

<tripinfos xmlns:xsi="http://www.w3.org/2001/XMLSchema-instance" xsi:noNamespaceSchemaLocation="http://sumo.dlr.de/xsd/tripinfo_file.xsd">
    <tripinfo id="southEast.3" depart="25.00" departLane="southJunction_0" departPos="5.10" departSpeed="8.03" departDelay="0.91" arrival="91.00" arrivalLane="junctionEast_0" arrivalPos="492.80" arrivalSpeed="4.86" duration="66.00" routeLength="989.53" waitingTime="0.00" waitingCount="0" stopTime="0.00" timeLoss="5.61" rerouteNo="0" devices="tripinfo_southEast.3 ssm_southEast.3" vType="carCustom" speedFactor="0.87" vaporized="teleport"/>
    <tripinfo id="southEast.0" depart="3.00" departLane="southJunction_0" departPos="5.10" departSpeed="8.33" departDelay="0.14" arrival="133.00" arrivalLane="junctionEast_0" arrivalPos="492.80" arrivalSpeed="8.28" duration="130.00" routeLength="989.53" waitingTime="0.00" waitingCount="0" stopTime="0.00" timeLoss="10.85" rerouteNo="0" devices="tripinfo_southEast.0 ssm_southEast.0" vType="carCustom" speedFactor="1.05" vaporized=""/>
    <tripinfo id="westEastTop.0" depart="5.00" departLane="westJunction_1" departPos="5.10" departSpeed="8.33" departDelay="0.63" arrival="136.00" arrivalLane="junctionEast_1" arrivalPos="492.80" arrivalSpeed="7.19" duration="131.00" routeLength="994.90" waitingTime="0.00" waitingCount="0" stopTime="0.00" timeLoss="10.72" rerouteNo="0" devices="tripinfo_westEastTop.0 ssm_westEastTop.0" vType="carCustom" speedFactor="0.90" vaporized=""/>
    <tripinfo id="westEastBottom0.0" depart="5.00" departLane="westJunction_0" departPos="5.10" departSpeed="8.33" departDelay="0.66" arrival="137.00" arrivalLane="junctionEast_0" arrivalPos="492.80" arrivalSpeed="7.38" duration="132.00" routeLength="994.90" waitingTime="0.00" waitingCount="0" stopTime="0.00" timeLoss="12.19" rerouteNo="0" devices="tripinfo_westEastBottom0.0 ssm_westEastBottom0.0" vType="carCustom" speedFactor="1.11" vaporized=""/>
    <tripinfo id="southEast.1" depart="8.00" departLane="southJunction_0" departPos="5.10" departSpeed="7.24" departDelay="0.01" arrival="141.00" arrivalLane="junctionEast_0" arrivalPos="492.80" arrivalSpeed="7.14" duration="133.00" routeLength="989.53" waitingTime="0.00" waitingCount="0" stopTime="0.00" timeLoss="13.66" rerouteNo="0" devices="tripinfo_southEast.1 ssm_southEast.1" vType="carCustom" speedFactor="1.10" vaporized=""/>
    <tripinfo id="westEastTop.1" depart="8.00" departLane="westJunction_1" departPos="5.10" departSpeed="7.79" departDelay="1.95" arrival="145.00" arrivalLane="junctionEast_0" arrivalPos="492.80" arrivalSpeed="7.74" duration="137.00" routeLength="994.90" waitingTime="1.00" waitingCount="1" stopTime="0.00" timeLoss="16.80" rerouteNo="0" devices="tripinfo_westEastTop.1 ssm_westEastTop.1" vType="carCustom" speedFactor="1.04" vaporized=""/>
    <tripinfo id="southNorth.0" depart="18.00" departLane="southJunction_1" departPos="5.10" departSpeed="8.33" departDelay="0.25" arrival="148.00" arrivalLane="junctionNorth_0" arrivalPos="492.80" arrivalSpeed="8.07" duration="130.00" routeLength="995.01" waitingTime="0.00" waitingCount="0" stopTime="0.00" timeLoss="10.34" rerouteNo="0" devices="tripinfo_southNorth.0 ssm_southNorth.0" vType="carCustom" speedFactor="1.02" vaporized=""/>
    <tripinfo id="southEast.2" depart="20.00" departLane="southJunction_0" departPos="5.10" departSpeed="7.62" departDelay="0.91" arrival="150.00" arrivalLane="junctionEast_0" arrivalPos="492.80" arrivalSpeed="8.24" duration="130.00" routeLength="989.53" waitingTime="0.00" waitingCount="0" stopTime="0.00" timeLoss="9.99" rerouteNo="0" devices="tripinfo_southEast.2 ssm_southEast.2" vType="carCustom" speedFactor="0.92" vaporized=""/>
    <tripinfo id="westEastTop.2" depart="11.00" departLane="westJunction_1" departPos="5.10" departSpeed="6.76" departDelay="3.86" arrival="153.00" arrivalLane="junctionEast_0" arrivalPos="492.80" arrivalSpeed="7.05" duration="142.00" routeLength="994.90" waitingTime="5.00" waitingCount="1" stopTime="0.00" timeLoss="22.35" rerouteNo="0" devices="tripinfo_westEastTop.2 ssm_westEastTop.2" vType="carCustom" speedFactor="1.08" vaporized=""/>
    <tripinfo id="westEastBottom0.1" depart="25.00" departLane="westJunction_0" departPos="5.10" departSpeed="7.37" departDelay="0.77" arrival="157.00" arrivalLane="junctionEast_0" arrivalPos="492.80" arrivalSpeed="8.18" duration="132.00" routeLength="994.90" waitingTime="0.00" waitingCount="0" stopTime="0.00" timeLoss="11.95" rerouteNo="0" devices="tripinfo_westEastBottom0.1 ssm_westEastBottom0.1" vType="carCustom" speedFactor="0.86" vaporized=""/>
    <tripinfo id="southNorth.1" depart="21.00" departLane="southJunction_1" departPos="5.10" departSpeed="7.79" departDelay="3.14" arrival="158.00" arrivalLane="junctionNorth_0" arrivalPos="492.80" arrivalSpeed="7.17" duration="137.00" routeLength="995.01" waitingTime="3.00" waitingCount="1" stopTime="0.00" timeLoss="17.37" rerouteNo="0" devices="tripinfo_southNorth.1 ssm_southNorth.1" vType="carCustom" speedFactor="1.14" vaporized=""/>
    <tripinfo id="southEast.4" depart="27.00" departLane="southJunction_0" departPos="5.10" departSpeed="7.13" departDelay="1.89" arrival="161.00" arrivalLane="junctionEast_0" arrivalPos="492.80" arrivalSpeed="7.04" duration="134.00" routeLength="989.53" waitingTime="0.00" waitingCount="0" stopTime="0.00" timeLoss="14.23" rerouteNo="0" devices="tripinfo_southEast.4 ssm_southEast.4" vType="carCustom" speedFactor="0.88" vaporized=""/>
    <tripinfo id="southNorth.2" depart="24.00" departLane="southJunction_1" departPos="5.10" departSpeed="6.76" departDelay="5.30" arrival="162.00" arrivalLane="junctionNorth_0" arrivalPos="492.80" arrivalSpeed="8.08" duration="138.00" routeLength="995.01" waitingTime="0.00" waitingCount="0" stopTime="0.00" timeLoss="18.17" rerouteNo="0" devices="tripinfo_southNorth.2 ssm_southNorth.2" vType="carCustom" speedFactor="1.04" vaporized=""/>
    <tripinfo id="westEastTop.3" depart="21.00" departLane="westJunction_1" departPos="5.10" departSpeed="7.58" departDelay="0.54" arrival="164.00" arrivalLane="junctionEast_0" arrivalPos="492.80" arrivalSpeed="7.52" duration="143.00" routeLength="994.90" waitingTime="5.00" waitingCount="1" stopTime="0.00" timeLoss="23.16" rerouteNo="0" devices="tripinfo_westEastTop.3 ssm_westEastTop.3" vType="carCustom" speedFactor="0.93" vaporized=""/>
    <tripinfo id="westEastBottom0.2" depart="28.00" departLane="westJunction_0" departPos="5.10" departSpeed="7.92" departDelay="0.77" arrival="165.00" arrivalLane="junctionEast_1" arrivalPos="492.80" arrivalSpeed="8.23" duration="137.00" routeLength="994.90" waitingTime="2.00" waitingCount="1" stopTime="0.00" timeLoss="17.45" rerouteNo="0" devices="tripinfo_westEastBottom0.2 ssm_westEastBottom0.2" vType="carCustom" speedFactor="0.93" vaporized=""/>
    <tripinfo id="westEastTop.4" depart="23.00" departLane="westJunction_1" departPos="5.10" departSpeed="7.35" departDelay="2.21" arrival="168.00" arrivalLane="junctionEast_0" arrivalPos="492.80" arrivalSpeed="7.05" duration="145.00" routeLength="994.90" waitingTime="3.00" waitingCount="1" stopTime="0.00" timeLoss="25.34" rerouteNo="0" devices="tripinfo_westEastTop.4 ssm_westEastTop.4" vType="carCustom" speedFactor="0.97" vaporized=""/>
    <tripinfo id="southNorth.3" depart="28.00" departLane="southJunction_1" departPos="5.10" departSpeed="6.98" departDelay="0.69" arrival="168.00" arrivalLane="junctionNorth_0" arrivalPos="492.80" arrivalSpeed="7.68" duration="140.00" routeLength="995.01" waitingTime="2.00" waitingCount="1" stopTime="0.00" timeLoss="20.44" rerouteNo="0" devices="tripinfo_southNorth.3 ssm_southNorth.3" vType="carCustom" speedFactor="1.08" vaporized=""/>
    <tripinfo id="westEastBottom0.3" depart="32.00" departLane="westJunction_0" departPos="5.10" departSpeed="6.72" departDelay="0.60" arrival="170.00" arrivalLane="junctionEast_1" arrivalPos="492.80" arrivalSpeed="7.86" duration="138.00" routeLength="994.90" waitingTime="0.00" waitingCount="0" stopTime="0.00" timeLoss="17.67" rerouteNo="0" devices="tripinfo_westEastBottom0.3 ssm_westEastBottom0.3" vType="carCustom" speedFactor="1.17" vaporized=""/>
    <tripinfo id="southEast.5" depart="38.00" departLane="southJunction_0" departPos="5.10" departSpeed="6.95" departDelay="0.65" arrival="172.00" arrivalLane="junctionEast_0" arrivalPos="492.80" arrivalSpeed="7.46" duration="134.00" routeLength="989.53" waitingTime="0.00" waitingCount="0" stopTime="0.00" timeLoss="14.74" rerouteNo="0" devices="tripinfo_southEast.5 ssm_southEast.5" vType="carCustom" speedFactor="1.00" vaporized=""/>
    <tripinfo id="westEastTop.5" depart="26.00" departLane="westJunction_1" departPos="5.10" departSpeed="6.54" departDelay="3.85" arrival="173.00" arrivalLane="junctionEast_1" arrivalPos="492.80" arrivalSpeed="8.10" duration="147.00" routeLength="994.90" waitingTime="3.00" waitingCount="2" stopTime="0.00" timeLoss="27.41" rerouteNo="0" devices="tripinfo_westEastTop.5 ssm_westEastTop.5" vType="carCustom" speedFactor="1.01" vaporized=""/>
    <tripinfo id="westEastTop.6" depart="29.00" departLane="westJunction_1" departPos="5.10" departSpeed="5.59" departDelay="2.39" arrival="177.00" arrivalLane="junctionEast_0" arrivalPos="492.80" arrivalSpeed="7.59" duration="148.00" routeLength="994.90" waitingTime="1.00" waitingCount="1" stopTime="0.00" timeLoss="27.71" rerouteNo="0" devices="tripinfo_westEastTop.6 ssm_westEastTop.6" vType="carCustom" speedFactor="0.98" vaporized=""/>
    <tripinfo id="southEast.6" depart="51.00" departLane="southJunction_0" departPos="5.10" departSpeed="7.67" departDelay="0.35" arrival="181.00" arrivalLane="junctionEast_0" arrivalPos="492.80" arrivalSpeed="7.63" duration="130.00" routeLength="989.53" waitingTime="0.00" waitingCount="0" stopTime="0.00" timeLoss="10.68" rerouteNo="0" devices="tripinfo_southEast.6 ssm_southEast.6" vType="carCustom" speedFactor="1.02" vaporized=""/>
    <tripinfo id="westEastTop.7" depart="34.00" departLane="westJunction_1" departPos="5.10" departSpeed="6.34" departDelay="0.17" arrival="183.00" arrivalLane="junctionEast_1" arrivalPos="492.80" arrivalSpeed="7.60" duration="149.00" routeLength="994.90" waitingTime="1.00" waitingCount="1" stopTime="0.00" timeLoss="29.29" rerouteNo="0" devices="tripinfo_westEastTop.7 ssm_westEastTop.7" vType="carCustom" speedFactor="1.12" vaporized=""/>
    <tripinfo id="westEastTop.8" depart="40.00" departLane="westJunction_1" departPos="5.10" departSpeed="7.11" departDelay="0.35" arrival="187.00" arrivalLane="junctionEast_1" arrivalPos="492.80" arrivalSpeed="8.24" duration="147.00" routeLength="994.90" waitingTime="0.00" waitingCount="0" stopTime="0.00" timeLoss="26.94" rerouteNo="0" devices="tripinfo_westEastTop.8 ssm_westEastTop.8" vType="carCustom" speedFactor="1.00" vaporized=""/>
    <tripinfo id="southEast.7" depart="57.00" departLane="southJunction_0" departPos="5.10" departSpeed="7.94" departDelay="0.33" arrival="187.00" arrivalLane="junctionEast_0" arrivalPos="492.80" arrivalSpeed="7.42" duration="130.00" routeLength="989.53" waitingTime="0.00" waitingCount="0" stopTime="0.00" timeLoss="10.66" rerouteNo="0" devices="tripinfo_southEast.7 ssm_southEast.7" vType="carCustom" speedFactor="1.05" vaporized=""/>
    <tripinfo id="southNorth.4" depart="52.00" departLane="southJunction_1" departPos="5.10" departSpeed="7.60" departDelay="0.81" arrival="188.00" arrivalLane="junctionNorth_0" arrivalPos="492.80" arrivalSpeed="7.77" duration="136.00" routeLength="995.01" waitingTime="4.00" waitingCount="1" stopTime="0.00" timeLoss="16.00" rerouteNo="0" devices="tripinfo_southNorth.4 ssm_southNorth.4" vType="carCustom" speedFactor="1.03" vaporized=""/>
    <tripinfo id="southNorth.5" depart="57.00" departLane="southJunction_1" departPos="5.10" departSpeed="7.45" departDelay="0.61" arrival="192.00" arrivalLane="junctionNorth_0" arrivalPos="492.80" arrivalSpeed="8.02" duration="135.00" routeLength="995.01" waitingTime="0.00" waitingCount="0" stopTime="0.00" timeLoss="14.63" rerouteNo="0" devices="tripinfo_southNorth.5 ssm_southNorth.5" vType="carCustom" speedFactor="1.03" vaporized=""/>
    <tripinfo id="westEastTop.9" depart="51.00" departLane="westJunction_1" departPos="5.10" departSpeed="7.13" departDelay="0.50" arrival="193.00" arrivalLane="junctionEast_0" arrivalPos="492.80" arrivalSpeed="7.78" duration="142.00" routeLength="994.90" waitingTime="2.00" waitingCount="1" stopTime="0.00" timeLoss="21.84" rerouteNo="0" devices="tripinfo_westEastTop.9 ssm_westEastTop.9" vType="carCustom" speedFactor="0.89" vaporized=""/>
    <tripinfo id="westEastTop.10" depart="53.00" departLane="westJunction_1" departPos="5.10" departSpeed="7.74" departDelay="2.16" arrival="196.00" arrivalLane="junctionEast_0" arrivalPos="492.80" arrivalSpeed="7.47" duration="143.00" routeLength="994.90" waitingTime="0.00" waitingCount="0" stopTime="0.00" timeLoss="23.46" rerouteNo="0" devices="tripinfo_westEastTop.10 ssm_westEastTop.10" vType="carCustom" speedFactor="1.10" vaporized=""/>
    <tripinfo id="southNorth.6" depart="65.00" departLane="southJunction_1" departPos="5.10" departSpeed="7.84" departDelay="0.24" arrival="198.00" arrivalLane="junctionNorth_0" arrivalPos="492.80" arrivalSpeed="7.39" duration="133.00" routeLength="995.01" waitingTime="1.00" waitingCount="1" stopTime="0.00" timeLoss="13.09" rerouteNo="0" devices="tripinfo_southNorth.6 ssm_southNorth.6" vType="carCustom" speedFactor="1.02" vaporized=""/>
    <tripinfo id="westEastTop.11" depart="59.00" departLane="westJunction_1" departPos="5.10" departSpeed="6.82" departDelay="0.33" arrival="203.00" arrivalLane="junctionEast_1" arrivalPos="492.80" arrivalSpeed="7.75" duration="144.00" routeLength="994.90" waitingTime="2.00" waitingCount="1" stopTime="0.00" timeLoss="24.33" rerouteNo="0" devices="tripinfo_westEastTop.11 ssm_westEastTop.11" vType="carCustom" speedFactor="0.89" vaporized=""/>
    <tripinfo id="southEast.8" depart="73.00" departLane="southJunction_0" departPos="5.10" departSpeed="7.26" departDelay="0.32" arrival="203.00" arrivalLane="junctionEast_0" arrivalPos="492.80" arrivalSpeed="8.23" duration="130.00" routeLength="989.53" waitingTime="0.00" waitingCount="0" stopTime="0.00" timeLoss="10.78" rerouteNo="0" devices="tripinfo_southEast.8 ssm_southEast.8" vType="carCustom" speedFactor="1.04" vaporized=""/>
    <tripinfo id="westEastBottom0.13" depart="134.00" departLane="westJunction_0" departPos="5.10" departSpeed="6.99" departDelay="0.44" arrival="203.00" arrivalLane="junctionEast_0" arrivalPos="492.80" arrivalSpeed="4.18" duration="69.00" routeLength="994.90" waitingTime="0.00" waitingCount="0" stopTime="0.00" timeLoss="8.53" rerouteNo="0" devices="tripinfo_westEastBottom0.13 ssm_westEastBottom0.13" vType="carCustom" speedFactor="1.00" vaporized="teleport"/>
    <tripinfo id="westEastTop.12" depart="66.00" departLane="westJunction_1" departPos="5.10" departSpeed="8.23" departDelay="0.10" arrival="207.00" arrivalLane="junctionEast_1" arrivalPos="492.80" arrivalSpeed="7.14" duration="141.00" routeLength="994.90" waitingTime="0.00" waitingCount="0" stopTime="0.00" timeLoss="21.41" rerouteNo="0" devices="tripinfo_westEastTop.12 ssm_westEastTop.12" vType="carCustom" speedFactor="1.05" vaporized=""/>
    <tripinfo id="southNorth.7" depart="76.00" departLane="southJunction_1" departPos="5.10" departSpeed="7.27" departDelay="0.24" arrival="207.00" arrivalLane="junctionNorth_0" arrivalPos="492.80" arrivalSpeed="7.96" duration="131.00" routeLength="995.01" waitingTime="0.00" waitingCount="0" stopTime="0.00" timeLoss="11.06" rerouteNo="0" devices="tripinfo_southNorth.7 ssm_southNorth.7" vType="carCustom" speedFactor="1.00" vaporized=""/>
    <tripinfo id="southEast.9" depart="75.00" departLane="southJunction_0" departPos="5.10" departSpeed="7.34" departDelay="0.30" arrival="208.00" arrivalLane="junctionEast_0" arrivalPos="492.80" arrivalSpeed="8.10" duration="133.00" routeLength="989.53" waitingTime="0.00" waitingCount="0" stopTime="0.00" timeLoss="13.23" rerouteNo="0" devices="tripinfo_southEast.9 ssm_southEast.9" vType="carCustom" speedFactor="0.90" vaporized=""/>
    <tripinfo id="westEastBottom0.4" depart="78.00" departLane="westJunction_0" departPos="5.10" departSpeed="8.20" departDelay="0.44" arrival="213.00" arrivalLane="junctionEast_0" arrivalPos="492.80" arrivalSpeed="7.63" duration="135.00" routeLength="994.90" waitingTime="3.00" waitingCount="1" stopTime="0.00" timeLoss="15.50" rerouteNo="0" devices="tripinfo_westEastBottom0.4 ssm_westEastBottom0.4" vType="carCustom" speedFactor="0.98" vaporized=""/>
    <tripinfo id="westEastTop.13" depart="69.00" departLane="westJunction_1" departPos="5.10" departSpeed="7.69" departDelay="1.57" arrival="214.00" arrivalLane="junctionEast_1" arrivalPos="492.80" arrivalSpeed="7.55" duration="145.00" routeLength="994.90" waitingTime="2.00" waitingCount="1" stopTime="0.00" timeLoss="24.94" rerouteNo="0" devices="tripinfo_westEastTop.13 ssm_westEastTop.13" vType="carCustom" speedFactor="1.05" vaporized=""/>
    <tripinfo id="southEast.19" depart="136.00" departLane="southJunction_0" departPos="5.10" departSpeed="5.82" departDelay="6.52" arrival="215.00" arrivalLane="junctionEast_0" arrivalPos="492.80" arrivalSpeed="3.92" duration="79.00" routeLength="989.53" waitingTime="0.00" waitingCount="0" stopTime="0.00" timeLoss="19.07" rerouteNo="0" devices="tripinfo_southEast.19 ssm_southEast.19" vType="carCustom" speedFactor="1.06" vaporized="teleport"/>
    <tripinfo id="westEastTop.14" depart="72.00" departLane="westJunction_1" departPos="5.10" departSpeed="7.51" departDelay="4.38" arrival="217.00" arrivalLane="junctionEast_1" arrivalPos="492.80" arrivalSpeed="7.32" duration="145.00" routeLength="994.90" waitingTime="0.00" waitingCount="0" stopTime="0.00" timeLoss="25.51" rerouteNo="0" devices="tripinfo_westEastTop.14 ssm_westEastTop.14" vType="carCustom" speedFactor="1.11" vaporized=""/>
    <tripinfo id="westEastBottom0.5" depart="81.00" departLane="westJunction_0" departPos="5.10" departSpeed="7.81" departDelay="0.41" arrival="218.00" arrivalLane="junctionEast_0" arrivalPos="492.80" arrivalSpeed="8.32" duration="137.00" routeLength="994.90" waitingTime="0.00" waitingCount="0" stopTime="0.00" timeLoss="16.70" rerouteNo="0" devices="tripinfo_westEastBottom0.5 ssm_westEastBottom0.5" vType="carCustom" speedFactor="0.97" vaporized=""/>
    <tripinfo id="westEastBottom0.16" depart="153.00" departLane="westJunction_0" departPos="5.10" departSpeed="7.93" departDelay="0.92" arrival="220.00" arrivalLane="junctionEast_0" arrivalPos="492.80" arrivalSpeed="3.24" duration="67.00" routeLength="994.90" waitingTime="0.00" waitingCount="0" stopTime="0.00" timeLoss="6.38" rerouteNo="0" devices="tripinfo_westEastBottom0.16 ssm_westEastBottom0.16" vType="carCustom" speedFactor="1.11" vaporized="teleport"/>
    <tripinfo id="westEastTop.15" depart="75.00" departLane="westJunction_1" departPos="5.10" departSpeed="6.04" departDelay="3.33" arrival="221.00" arrivalLane="junctionEast_1" arrivalPos="492.80" arrivalSpeed="7.04" duration="146.00" routeLength="994.90" waitingTime="0.00" waitingCount="0" stopTime="0.00" timeLoss="26.27" rerouteNo="0" devices="tripinfo_westEastTop.15 ssm_westEastTop.15" vType="carCustom" speedFactor="1.02" vaporized=""/>
    <tripinfo id="southEast.10" depart="78.00" departLane="southJunction_0" departPos="5.10" departSpeed="6.13" departDelay="0.06" arrival="221.00" arrivalLane="junctionEast_0" arrivalPos="492.80" arrivalSpeed="8.00" duration="143.00" routeLength="989.53" waitingTime="4.00" waitingCount="1" stopTime="0.00" timeLoss="23.88" rerouteNo="0" devices="tripinfo_southEast.10 ssm_southEast.10" vType="carCustom" speedFactor="1.04" vaporized=""/>
    <tripinfo id="southNorth.8" depart="88.00" departLane="southJunction_1" departPos="5.10" departSpeed="7.31" departDelay="0.78" arrival="223.00" arrivalLane="junctionNorth_0" arrivalPos="492.80" arrivalSpeed="8.16" duration="135.00" routeLength="995.01" waitingTime="3.00" waitingCount="1" stopTime="0.00" timeLoss="15.07" rerouteNo="0" devices="tripinfo_southNorth.8 ssm_southNorth.8" vType="carCustom" speedFactor="0.96" vaporized=""/>
    <tripinfo id="westEastBottom0.6" depart="89.00" departLane="westJunction_0" departPos="5.10" departSpeed="8.19" departDelay="0.51" arrival="225.00" arrivalLane="junctionEast_0" arrivalPos="492.80" arrivalSpeed="7.99" duration="136.00" routeLength="994.90" waitingTime="0.00" waitingCount="0" stopTime="0.00" timeLoss="16.12" rerouteNo="0" devices="tripinfo_westEastBottom0.6 ssm_westEastBottom0.6" vType="carCustom" speedFactor="1.05" vaporized=""/>
    <tripinfo id="westEastBottom0.17" depart="160.00" departLane="westJunction_0" departPos="5.10" departSpeed="7.15" departDelay="0.47" arrival="226.00" arrivalLane="junctionEast_0" arrivalPos="492.80" arrivalSpeed="6.67" duration="66.00" routeLength="994.90" waitingTime="0.00" waitingCount="0" stopTime="0.00" timeLoss="5.53" rerouteNo="0" devices="tripinfo_westEastBottom0.17 ssm_westEastBottom0.17" vType="carCustom" speedFactor="0.91" vaporized="teleport"/>
    <tripinfo id="westEastTop.16" depart="82.00" departLane="westJunction_1" departPos="5.10" departSpeed="7.56" departDelay="0.84" arrival="228.00" arrivalLane="junctionEast_1" arrivalPos="492.80" arrivalSpeed="8.23" duration="146.00" routeLength="994.90" waitingTime="3.00" waitingCount="1" stopTime="0.00" timeLoss="25.83" rerouteNo="0" devices="tripinfo_westEastTop.16 ssm_westEastTop.16" vType="carCustom" speedFactor="0.97" vaporized=""/>
    <tripinfo id="southEast.11" depart="93.00" departLane="southJunction_0" departPos="5.10" departSpeed="7.95" departDelay="0.45" arrival="229.00" arrivalLane="junctionEast_0" arrivalPos="492.80" arrivalSpeed="7.06" duration="136.00" routeLength="989.53" waitingTime="0.00" waitingCount="0" stopTime="0.00" timeLoss="15.99" rerouteNo="0" devices="tripinfo_southEast.11 ssm_southEast.11" vType="carCustom" speedFactor="0.82" vaporized=""/>
    <tripinfo id="westEastBottom0.7" depart="91.00" departLane="westJunction_0" departPos="5.10" departSpeed="8.15" departDelay="1.72" arrival="233.00" arrivalLane="junctionEast_0" arrivalPos="492.80" arrivalSpeed="7.72" duration="142.00" routeLength="994.90" waitingTime="3.00" waitingCount="1" stopTime="0.00" timeLoss="21.68" rerouteNo="0" devices="tripinfo_westEastBottom0.7 ssm_westEastBottom0.7" vType="carCustom" speedFactor="0.93" vaporized=""/>
    <tripinfo id="southNorth.9" depart="97.00" departLane="southJunction_1" departPos="5.10" departSpeed="7.10" departDelay="0.64" arrival="233.00" arrivalLane="junctionNorth_0" arrivalPos="492.80" arrivalSpeed="8.11" duration="136.00" routeLength="995.01" waitingTime="4.00" waitingCount="1" stopTime="0.00" timeLoss="16.47" rerouteNo="0" devices="tripinfo_southNorth.9 ssm_southNorth.9" vType="carCustom" speedFactor="0.90" vaporized=""/>
    <tripinfo id="southEast.12" depart="102.00" departLane="southJunction_0" departPos="5.10" departSpeed="7.77" departDelay="0.18" arrival="236.00" arrivalLane="junctionEast_0" arrivalPos="492.80" arrivalSpeed="7.42" duration="134.00" routeLength="989.53" waitingTime="0.00" waitingCount="0" stopTime="0.00" timeLoss="14.92" rerouteNo="0" devices="tripinfo_southEast.12 ssm_southEast.12" vType="carCustom" speedFactor="1.15" vaporized=""/>
    <tripinfo id="westEastTop.17" depart="84.00" departLane="westJunction_1" departPos="5.10" departSpeed="8.04" departDelay="1.41" arrival="237.00" arrivalLane="junctionEast_0" arrivalPos="492.80" arrivalSpeed="7.55" duration="153.00" routeLength="994.90" waitingTime="5.00" waitingCount="1" stopTime="0.00" timeLoss="33.49" rerouteNo="0" devices="tripinfo_westEastTop.17 ssm_westEastTop.17" vType="carCustom" speedFactor="1.01" vaporized=""/>
    <tripinfo id="southNorth.10" depart="100.00" departLane="southJunction_1" departPos="5.10" departSpeed="7.82" departDelay="2.38" arrival="237.00" arrivalLane="junctionNorth_0" arrivalPos="492.80" arrivalSpeed="7.27" duration="137.00" routeLength="995.01" waitingTime="0.00" waitingCount="0" stopTime="0.00" timeLoss="17.19" rerouteNo="0" devices="tripinfo_southNorth.10 ssm_southNorth.10" vType="carCustom" speedFactor="1.20" vaporized=""/>
    <tripinfo id="westEastBottom0.8" depart="94.00" departLane="westJunction_0" departPos="5.10" departSpeed="5.98" departDelay="4.64" arrival="240.00" arrivalLane="junctionEast_0" arrivalPos="492.80" arrivalSpeed="7.43" duration="146.00" routeLength="994.90" waitingTime="5.00" waitingCount="1" stopTime="0.00" timeLoss="26.10" rerouteNo="0" devices="tripinfo_westEastBottom0.8 ssm_westEastBottom0.8" vType="carCustom" speedFactor="0.82" vaporized=""/>
    <tripinfo id="westEastTop.18" depart="88.00" departLane="westJunction_1" departPos="5.10" departSpeed="6.83" departDelay="0.12" arrival="242.00" arrivalLane="junctionEast_0" arrivalPos="492.80" arrivalSpeed="7.90" duration="154.00" routeLength="994.90" waitingTime="4.00" waitingCount="1" stopTime="0.00" timeLoss="34.05" rerouteNo="0" devices="tripinfo_westEastTop.18 ssm_westEastTop.18" vType="carCustom" speedFactor="1.22" vaporized=""/>
    <tripinfo id="southNorth.11" depart="103.00" departLane="southJunction_1" departPos="5.10" departSpeed="7.20" departDelay="3.34" arrival="243.00" arrivalLane="junctionNorth_0" arrivalPos="492.80" arrivalSpeed="7.88" duration="140.00" routeLength="995.01" waitingTime="2.00" waitingCount="1" stopTime="0.00" timeLoss="20.38" rerouteNo="0" devices="tripinfo_southNorth.11 ssm_southNorth.11" vType="carCustom" speedFactor="0.93" vaporized=""/>
    <tripinfo id="westEastBottom0.9" depart="97.00" departLane="westJunction_0" departPos="5.10" departSpeed="5.34" departDelay="0.60" arrival="244.00" arrivalLane="junctionEast_0" arrivalPos="492.80" arrivalSpeed="7.67" duration="147.00" routeLength="994.90" waitingTime="4.00" waitingCount="1" stopTime="0.00" timeLoss="27.41" rerouteNo="0" devices="tripinfo_westEastBottom0.9 ssm_westEastBottom0.9" vType="carCustom" speedFactor="1.07" vaporized=""/>
    <tripinfo id="westEastTop.19" depart="91.00" departLane="westJunction_1" departPos="5.10" departSpeed="6.28" departDelay="3.04" arrival="248.00" arrivalLane="junctionEast_1" arrivalPos="492.80" arrivalSpeed="7.41" duration="157.00" routeLength="994.90" waitingTime="5.00" waitingCount="2" stopTime="0.00" timeLoss="37.42" rerouteNo="0" devices="tripinfo_westEastTop.19 ssm_westEastTop.19" vType="carCustom" speedFactor="0.87" vaporized=""/>
    <tripinfo id="westEastBottom0.10" depart="103.00" departLane="westJunction_0" departPos="5.10" departSpeed="6.19" departDelay="0.80" arrival="248.00" arrivalLane="junctionEast_0" arrivalPos="492.80" arrivalSpeed="7.90" duration="145.00" routeLength="994.90" waitingTime="4.00" waitingCount="2" stopTime="0.00" timeLoss="25.36" rerouteNo="0" devices="tripinfo_westEastBottom0.10 ssm_westEastBottom0.10" vType="carCustom" speedFactor="1.06" vaporized=""/>
    <tripinfo id="southEast.13" depart="118.00" departLane="southJunction_0" departPos="5.10" departSpeed="7.80" departDelay="0.50" arrival="252.00" arrivalLane="junctionEast_0" arrivalPos="492.80" arrivalSpeed="8.09" duration="134.00" routeLength="989.53" waitingTime="2.00" waitingCount="1" stopTime="0.00" timeLoss="14.61" rerouteNo="0" devices="tripinfo_southEast.13 ssm_southEast.13" vType="carCustom" speedFactor="0.98" vaporized=""/>
    <tripinfo id="southNorth.12" depart="120.00" departLane="southJunction_1" departPos="5.10" departSpeed="8.32" departDelay="0.46" arrival="252.00" arrivalLane="junctionNorth_0" arrivalPos="492.80" arrivalSpeed="7.47" duration="132.00" routeLength="995.01" waitingTime="0.00" waitingCount="0" stopTime="0.00" timeLoss="12.28" rerouteNo="0" devices="tripinfo_southNorth.12 ssm_southNorth.12" vType="carCustom" speedFactor="1.06" vaporized=""/>
    <tripinfo id="southEast.14" depart="120.00" departLane="southJunction_0" departPos="5.10" departSpeed="8.30" departDelay="0.05" arrival="256.00" arrivalLane="junctionEast_0" arrivalPos="492.80" arrivalSpeed="8.22" duration="136.00" routeLength="989.53" waitingTime="0.00" waitingCount="0" stopTime="0.00" timeLoss="16.32" rerouteNo="0" devices="tripinfo_southEast.14 ssm_southEast.14" vType="carCustom" speedFactor="0.79" vaporized=""/>