<?xml version="1.0" encoding="UTF-8"?>

<!-- generated on 2025-04-29 10:04:56 by Eclipse SUMO sumo Version 1.20.0
<configuration xmlns:xsi="http://www.w3.org/2001/XMLSchema-instance" xsi:noNamespaceSchemaLocation="http://sumo.dlr.de/xsd/sumoConfiguration.xsd">

    <input>
        <net-file value="nets/2lane_unprotected_right/2lane_unprotected_right.net.xml"/>
        <route-files value="nets/2lane_unprotected_right/2lane_unprotected_right.rou.xml"/>
    </input>

    <output>
        <tripinfo-output value="traces/transs50f0.5_s50_f1_random/0245_tripinfo.xml"/>
        <collision-output value="traces/transs50f0.5_s50_f1_random/0245_collisions.xml"/>
        <statistic-output value="traces/transs50f0.5_s50_f1_random/0245_statistics.xml"/>
    </output>

    <processing>
        <collision.action value="teleport"/>
        <collision.check-junctions value="true"/>
        <time-to-teleport value="-1"/>
        <waiting-time-memory value="1000"/>
        <max-depart-delay value="-1"/>
        <default.speeddev value="0.1"/>
    </processing>

    <report>
        <no-warnings value="true"/>
    </report>

    <ssm_device>
        <device.ssm.probability value="1.0"/>
        <device.ssm.measures value="BR"/>
        <device.ssm.file value="/Users/finn/Code/CausalKnowledgeTransfer-4-SafeRL/traces/transs50f0.5_s50_f1_random/0245_ssm.xml"/>
    </ssm_device>

    <traci_server>
        <remote-port value="65431"/>
    </traci_server>

    <random_number>
        <random value="true"/>
    </random_number>

</configuration>
-->

<tripinfos xmlns:xsi="http://www.w3.org/2001/XMLSchema-instance" xsi:noNamespaceSchemaLocation="http://sumo.dlr.de/xsd/tripinfo_file.xsd">
    <tripinfo id="southNorth.0" depart="5.00" departLane="southJunction_1" departPos="5.10" departSpeed="22.22" departDelay="0.71" arrival="52.00" arrivalLane="junctionNorth_0" arrivalPos="492.80" arrivalSpeed="21.60" duration="47.00" routeLength="995.01" waitingTime="0.00" waitingCount="0" stopTime="0.00" timeLoss="1.34" rerouteNo="0" devices="tripinfo_southNorth.0 ssm_southNorth.0" vType="carCustom" speedFactor="1.07" vaporized=""/>
    <tripinfo id="westEastBottom0.5" depart="15.00" departLane="westJunction_0" departPos="5.10" departSpeed="8.49" departDelay="3.37" arrival="52.00" arrivalLane="junctionEast_0" arrivalPos="492.80" arrivalSpeed="16.57" duration="37.00" routeLength="994.90" waitingTime="0.00" waitingCount="0" stopTime="0.00" timeLoss="14.20" rerouteNo="0" devices="tripinfo_westEastBottom0.5 ssm_westEastBottom0.5" vType="carCustom" speedFactor="0.89" vaporized="teleport"/>
    <tripinfo id="westEastBottom0.0" depart="4.00" departLane="westJunction_0" departPos="5.10" departSpeed="22.22" departDelay="0.35" arrival="54.00" arrivalLane="junctionEast_0" arrivalPos="492.80" arrivalSpeed="21.25" duration="50.00" routeLength="994.90" waitingTime="0.00" waitingCount="0" stopTime="0.00" timeLoss="4.84" rerouteNo="0" devices="tripinfo_westEastBottom0.0 ssm_westEastBottom0.0" vType="carCustom" speedFactor="1.08" vaporized=""/>
    <tripinfo id="westEastTop.0" depart="3.00" departLane="westJunction_1" departPos="5.10" departSpeed="22.22" departDelay="0.43" arrival="57.00" arrivalLane="junctionEast_0" arrivalPos="492.80" arrivalSpeed="21.41" duration="54.00" routeLength="994.90" waitingTime="2.00" waitingCount="1" stopTime="0.00" timeLoss="8.26" rerouteNo="0" devices="tripinfo_westEastTop.0 ssm_westEastTop.0" vType="carCustom" speedFactor="1.03" vaporized=""/>
    <tripinfo id="southEast.0" depart="7.00" departLane="southJunction_0" departPos="5.10" departSpeed="22.22" departDelay="0.53" arrival="63.00" arrivalLane="junctionEast_0" arrivalPos="492.80" arrivalSpeed="21.73" duration="56.00" routeLength="989.53" waitingTime="0.00" waitingCount="0" stopTime="0.00" timeLoss="9.30" rerouteNo="0" devices="tripinfo_southEast.0 ssm_southEast.0" vType="carCustom" speedFactor="1.01" vaporized=""/>
    <tripinfo id="westEastBottom0.1" depart="8.00" departLane="westJunction_0" departPos="5.10" departSpeed="21.32" departDelay="0.88" arrival="64.00" arrivalLane="junctionEast_1" arrivalPos="492.80" arrivalSpeed="22.14" duration="56.00" routeLength="994.90" waitingTime="0.00" waitingCount="0" stopTime="0.00" timeLoss="10.91" rerouteNo="0" devices="tripinfo_westEastBottom0.1 ssm_westEastBottom0.1" vType="carCustom" speedFactor="0.90" vaporized=""/>
    <tripinfo id="southNorth.1" depart="7.00" departLane="southJunction_1" departPos="5.10" departSpeed="21.37" departDelay="0.42" arrival="66.00" arrivalLane="junctionNorth_0" arrivalPos="492.80" arrivalSpeed="22.07" duration="59.00" routeLength="995.01" waitingTime="0.00" waitingCount="0" stopTime="0.00" timeLoss="13.84" rerouteNo="0" devices="tripinfo_southNorth.1 ssm_southNorth.1" vType="carCustom" speedFactor="1.09" vaporized=""/>
    <tripinfo id="westEastBottom0.3" depart="11.00" departLane="westJunction_0" departPos="5.10" departSpeed="16.34" departDelay="1.11" arrival="71.00" arrivalLane="junctionEast_0" arrivalPos="492.80" arrivalSpeed="21.92" duration="60.00" routeLength="994.90" waitingTime="0.00" waitingCount="0" stopTime="0.00" timeLoss="14.37" rerouteNo="0" devices="tripinfo_westEastBottom0.3 ssm_westEastBottom0.3" vType="carCustom" speedFactor="1.00" vaporized=""/>
    <tripinfo id="westEastBottom0.2" depart="10.00" departLane="westJunction_0" departPos="5.10" departSpeed="17.57" departDelay="0.76" arrival="72.00" arrivalLane="junctionEast_1" arrivalPos="492.80" arrivalSpeed="21.31" duration="62.00" routeLength="994.90" waitingTime="2.00" waitingCount="1" stopTime="0.00" timeLoss="17.22" rerouteNo="0" devices="tripinfo_westEastBottom0.2 ssm_westEastBottom0.2" vType="carCustom" speedFactor="0.76" vaporized=""/>
    <tripinfo id="westEastBottom0.4" depart="13.00" departLane="westJunction_0" departPos="5.10" departSpeed="12.57" departDelay="2.21" arrival="79.00" arrivalLane="junctionEast_1" arrivalPos="492.80" arrivalSpeed="21.19" duration="66.00" routeLength="994.90" waitingTime="0.00" waitingCount="0" stopTime="0.00" timeLoss="21.08" rerouteNo="0" devices="tripinfo_westEastBottom0.4 ssm_westEastBottom0.4" vType="carCustom" speedFactor="0.93" vaporized=""/>
    <tripinfo id="southEast.1" depart="13.00" departLane="southJunction_0" departPos="5.10" departSpeed="21.90" departDelay="0.37" arrival="80.00" arrivalLane="junctionEast_0" arrivalPos="492.80" arrivalSpeed="21.44" duration="67.00" routeLength="989.53" waitingTime="3.00" waitingCount="1" stopTime="0.00" timeLoss="20.48" rerouteNo="0" devices="tripinfo_southEast.1 ssm_southEast.1" vType="carCustom" speedFactor="0.95" vaporized=""/>
    <tripinfo id="southNorth.2" depart="25.00" departLane="southJunction_1" departPos="5.10" departSpeed="17.64" departDelay="0.36" arrival="84.00" arrivalLane="junctionNorth_0" arrivalPos="492.80" arrivalSpeed="21.61" duration="59.00" routeLength="995.01" waitingTime="2.00" waitingCount="1" stopTime="0.00" timeLoss="13.29" rerouteNo="0" devices="tripinfo_southNorth.2 ssm_southNorth.2" vType="carCustom" speedFactor="1.01" vaporized=""/>
    <tripinfo id="southEast.2" depart="15.00" departLane="southJunction_0" departPos="5.10" departSpeed="18.84" departDelay="1.61" arrival="86.00" arrivalLane="junctionEast_0" arrivalPos="492.80" arrivalSpeed="21.01" duration="71.00" routeLength="989.53" waitingTime="0.00" waitingCount="0" stopTime="0.00" timeLoss="25.66" rerouteNo="0" devices="tripinfo_southEast.2 ssm_southEast.2" vType="carCustom" speedFactor="0.99" vaporized=""/>
    <tripinfo id="southEast.3" depart="17.00" departLane="southJunction_0" departPos="5.10" departSpeed="14.27" departDelay="0.30" arrival="88.00" arrivalLane="junctionEast_1" arrivalPos="492.80" arrivalSpeed="21.97" duration="71.00" routeLength="989.53" waitingTime="0.00" waitingCount="0" stopTime="0.00" timeLoss="25.64" rerouteNo="0" devices="tripinfo_southEast.3 ssm_southEast.3" vType="carCustom" speedFactor="1.10" vaporized=""/>
    <tripinfo id="westEastTop.1" depart="25.00" departLane="westJunction_1" departPos="5.10" departSpeed="18.89" departDelay="0.99" arrival="95.00" arrivalLane="junctionEast_1" arrivalPos="492.80" arrivalSpeed="21.12" duration="70.00" routeLength="994.90" waitingTime="4.00" waitingCount="1" stopTime="0.00" timeLoss="24.33" rerouteNo="0" devices="tripinfo_westEastTop.1 ssm_westEastTop.1" vType="carCustom" speedFactor="1.13" vaporized=""/>
    <tripinfo id="southEast.4" depart="31.00" departLane="southJunction_0" departPos="5.10" departSpeed="13.09" departDelay="0.99" arrival="101.00" arrivalLane="junctionEast_0" arrivalPos="492.80" arrivalSpeed="21.78" duration="70.00" routeLength="989.53" waitingTime="0.00" waitingCount="0" stopTime="0.00" timeLoss="23.31" rerouteNo="0" devices="tripinfo_southEast.4 ssm_southEast.4" vType="carCustom" speedFactor="1.06" vaporized=""/>
    <tripinfo id="southEast.5" depart="38.00" departLane="southJunction_0" departPos="5.10" departSpeed="16.22" departDelay="0.51" arrival="105.00" arrivalLane="junctionEast_1" arrivalPos="492.80" arrivalSpeed="21.50" duration="67.00" routeLength="989.53" waitingTime="0.00" waitingCount="0" stopTime="0.00" timeLoss="21.50" rerouteNo="0" devices="tripinfo_southEast.5 ssm_southEast.5" vType="carCustom" speedFactor="1.12" vaporized=""/>
    <tripinfo id="westEastTop.2" depart="29.00" departLane="westJunction_1" departPos="5.10" departSpeed="19.28" departDelay="0.69" arrival="106.00" arrivalLane="junctionEast_0" arrivalPos="492.80" arrivalSpeed="21.78" duration="77.00" routeLength="994.90" waitingTime="0.00" waitingCount="0" stopTime="0.00" timeLoss="31.40" rerouteNo="0" devices="tripinfo_westEastTop.2 ssm_westEastTop.2" vType="carCustom" speedFactor="1.07" vaporized=""/>
    <tripinfo id="southNorth.3" depart="47.00" departLane="southJunction_1" departPos="5.10" departSpeed="14.83" departDelay="0.48" arrival="109.00" arrivalLane="junctionNorth_0" arrivalPos="492.80" arrivalSpeed="21.74" duration="62.00" routeLength="995.01" waitingTime="5.00" waitingCount="1" stopTime="0.00" timeLoss="16.94" rerouteNo="0" devices="tripinfo_southNorth.3 ssm_southNorth.3" vType="carCustom" speedFactor="0.82" vaporized=""/>
    <tripinfo id="westEastBottom0.6" depart="34.00" departLane="westJunction_0" departPos="5.10" departSpeed="15.53" departDelay="0.37" arrival="111.00" arrivalLane="junctionEast_1" arrivalPos="492.80" arrivalSpeed="21.20" duration="77.00" routeLength="994.90" waitingTime="0.00" waitingCount="0" stopTime="0.00" timeLoss="31.34" rerouteNo="0" devices="tripinfo_westEastBottom0.6 ssm_westEastBottom0.6" vType="carCustom" speedFactor="1.03" vaporized=""/>
    <tripinfo id="westEastTop.3" depart="33.00" departLane="westJunction_1" departPos="5.10" departSpeed="13.90" departDelay="0.15" arrival="116.00" arrivalLane="junctionEast_0" arrivalPos="492.80" arrivalSpeed="21.21" duration="83.00" routeLength="994.90" waitingTime="0.00" waitingCount="0" stopTime="0.00" timeLoss="38.03" rerouteNo="0" devices="tripinfo_westEastTop.3 ssm_westEastTop.3" vType="carCustom" speedFactor="0.99" vaporized=""/>
    <tripinfo id="southNorth.4" depart="51.00" departLane="southJunction_1" departPos="5.10" departSpeed="21.03" departDelay="0.84" arrival="119.00" arrivalLane="junctionNorth_0" arrivalPos="492.80" arrivalSpeed="21.19" duration="68.00" routeLength="995.01" waitingTime="3.00" waitingCount="1" stopTime="0.00" timeLoss="23.04" rerouteNo="0" devices="tripinfo_southNorth.4 ssm_southNorth.4" vType="carCustom" speedFactor="0.98" vaporized=""/>
    <tripinfo id="southEast.6" depart="53.00" departLane="southJunction_0" departPos="5.10" departSpeed="14.54" departDelay="0.82" arrival="120.00" arrivalLane="junctionEast_0" arrivalPos="492.80" arrivalSpeed="20.22" duration="67.00" routeLength="989.53" waitingTime="0.00" waitingCount="0" stopTime="0.00" timeLoss="20.57" rerouteNo="0" devices="tripinfo_southEast.6 ssm_southEast.6" vType="carCustom" speedFactor="0.76" vaporized=""/>
    <tripinfo id="westEastTop.4" depart="37.00" departLane="westJunction_1" departPos="5.10" departSpeed="12.89" departDelay="0.25" arrival="121.00" arrivalLane="junctionEast_1" arrivalPos="492.80" arrivalSpeed="21.46" duration="84.00" routeLength="994.90" waitingTime="0.00" waitingCount="0" stopTime="0.00" timeLoss="38.95" rerouteNo="0" devices="tripinfo_westEastTop.4 ssm_westEastTop.4" vType="carCustom" speedFactor="0.93" vaporized=""/>
    <tripinfo id="westEastTop.5" depart="46.00" departLane="westJunction_1" departPos="5.10" departSpeed="8.12" departDelay="1.00" arrival="127.00" arrivalLane="junctionEast_0" arrivalPos="492.80" arrivalSpeed="22.06" duration="81.00" routeLength="994.90" waitingTime="2.00" waitingCount="1" stopTime="0.00" timeLoss="35.75" rerouteNo="0" devices="tripinfo_westEastTop.5 ssm_westEastTop.5" vType="carCustom" speedFactor="1.01" vaporized=""/>
    <tripinfo id="southNorth.5" depart="62.00" departLane="southJunction_1" departPos="5.10" departSpeed="18.34" departDelay="0.10" arrival="130.00" arrivalLane="junctionNorth_0" arrivalPos="492.80" arrivalSpeed="22.19" duration="68.00" routeLength="995.01" waitingTime="3.00" waitingCount="1" stopTime="0.00" timeLoss="22.35" rerouteNo="0" devices="tripinfo_southNorth.5 ssm_southNorth.5" vType="carCustom" speedFactor="0.87" vaporized=""/>
    <tripinfo id="southEast.7" depart="71.00" departLane="southJunction_0" departPos="5.10" departSpeed="16.71" departDelay="0.35" arrival="130.00" arrivalLane="junctionEast_1" arrivalPos="492.80" arrivalSpeed="21.63" duration="59.00" routeLength="989.53" waitingTime="0.00" waitingCount="0" stopTime="0.00" timeLoss="13.01" rerouteNo="0" devices="tripinfo_southEast.7 ssm_southEast.7" vType="carCustom" speedFactor="0.97" vaporized=""/>
    <tripinfo id="westEastBottom0.7" depart="79.00" departLane="westJunction_0" departPos="5.10" departSpeed="22.22" departDelay="0.30" arrival="135.00" arrivalLane="junctionEast_0" arrivalPos="492.80" arrivalSpeed="21.61" duration="56.00" routeLength="994.90" waitingTime="0.00" waitingCount="0" stopTime="0.00" timeLoss="10.54" rerouteNo="0" devices="tripinfo_westEastBottom0.7 ssm_westEastBottom0.7" vType="carCustom" speedFactor="0.92" vaporized=""/>
    <tripinfo id="westEastTop.6" depart="52.00" departLane="westJunction_1" departPos="5.10" departSpeed="11.75" departDelay="0.72" arrival="137.00" arrivalLane="junctionEast_1" arrivalPos="492.80" arrivalSpeed="20.94" duration="85.00" routeLength="994.90" waitingTime="4.00" waitingCount="1" stopTime="0.00" timeLoss="39.65" rerouteNo="0" devices="tripinfo_westEastTop.6 ssm_westEastTop.6" vType="carCustom" speedFactor="1.03" vaporized=""/>
    <tripinfo id="southNorth.6" depart="70.00" departLane="southJunction_1" departPos="5.10" departSpeed="19.64" departDelay="0.72" arrival="140.00" arrivalLane="junctionNorth_0" arrivalPos="492.80" arrivalSpeed="21.40" duration="70.00" routeLength="995.01" waitingTime="3.00" waitingCount="1" stopTime="0.00" timeLoss="24.27" rerouteNo="0" devices="tripinfo_southNorth.6 ssm_southNorth.6" vType="carCustom" speedFactor="1.07" vaporized=""/>
    <tripinfo id="southEast.8" depart="75.00" departLane="southJunction_0" departPos="5.10" departSpeed="18.79" departDelay="0.32" arrival="142.00" arrivalLane="junctionEast_0" arrivalPos="492.80" arrivalSpeed="21.72" duration="67.00" routeLength="989.53" waitingTime="0.00" waitingCount="0" stopTime="0.00" timeLoss="21.07" rerouteNo="0" devices="tripinfo_southEast.8 ssm_southEast.8" vType="carCustom" speedFactor="1.00" vaporized=""/>
    <tripinfo id="westEastTop.7" depart="54.00" departLane="westJunction_1" departPos="5.10" departSpeed="12.15" departDelay="1.78" arrival="143.00" arrivalLane="junctionEast_1" arrivalPos="492.80" arrivalSpeed="21.93" duration="89.00" routeLength="994.90" waitingTime="0.00" waitingCount="0" stopTime="0.00" timeLoss="44.11" rerouteNo="0" devices="tripinfo_westEastTop.7 ssm_westEastTop.7" vType="carCustom" speedFactor="0.98" vaporized=""/>
    <tripinfo id="westEastBottom0.8" depart="83.00" departLane="westJunction_0" departPos="5.10" departSpeed="18.69" departDelay="0.85" arrival="148.00" arrivalLane="junctionEast_0" arrivalPos="492.80" arrivalSpeed="21.67" duration="65.00" routeLength="994.90" waitingTime="0.00" waitingCount="0" stopTime="0.00" timeLoss="19.97" rerouteNo="0" devices="tripinfo_westEastBottom0.8 ssm_westEastBottom0.8" vType="carCustom" speedFactor="0.95" vaporized=""/>
    <tripinfo id="southNorth.7" depart="72.00" departLane="southJunction_1" departPos="5.10" departSpeed="19.47" departDelay="0.66" arrival="149.00" arrivalLane="junctionNorth_0" arrivalPos="492.80" arrivalSpeed="22.21" duration="77.00" routeLength="995.01" waitingTime="3.00" waitingCount="1" stopTime="0.00" timeLoss="31.94" rerouteNo="0" devices="tripinfo_southNorth.7 ssm_southNorth.7" vType="carCustom" speedFactor="0.94" vaporized=""/>
    <tripinfo id="westEastTop.8" depart="64.00" departLane="westJunction_1" departPos="5.10" departSpeed="10.00" departDelay="0.42" arrival="150.00" arrivalLane="junctionEast_1" arrivalPos="492.80" arrivalSpeed="21.46" duration="86.00" routeLength="994.90" waitingTime="0.00" waitingCount="0" stopTime="0.00" timeLoss="40.46" rerouteNo="0" devices="tripinfo_westEastTop.8 ssm_westEastTop.8" vType="carCustom" speedFactor="0.99" vaporized=""/>
    <tripinfo id="southEast.9" depart="80.00" departLane="southJunction_0" departPos="5.10" departSpeed="14.56" departDelay="0.61" arrival="154.00" arrivalLane="junctionEast_0" arrivalPos="492.80" arrivalSpeed="21.02" duration="74.00" routeLength="989.53" waitingTime="0.00" waitingCount="0" stopTime="0.00" timeLoss="28.73" rerouteNo="0" devices="tripinfo_southEast.9 ssm_southEast.9" vType="carCustom" speedFactor="1.19" vaporized=""/>
    <tripinfo id="westEastTop.9" depart="72.00" departLane="westJunction_1" departPos="5.10" departSpeed="12.50" departDelay="0.22" arrival="156.00" arrivalLane="junctionEast_1" arrivalPos="492.80" arrivalSpeed="21.07" duration="84.00" routeLength="994.90" waitingTime="0.00" waitingCount="0" stopTime="0.00" timeLoss="38.55" rerouteNo="0" devices="tripinfo_westEastTop.9 ssm_westEastTop.9" vType="carCustom" speedFactor="1.12" vaporized=""/>
    <tripinfo id="southNorth.8" depart="76.00" departLane="southJunction_1" departPos="5.10" departSpeed="12.01" departDelay="0.08" arrival="158.00" arrivalLane="junctionNorth_0" arrivalPos="492.80" arrivalSpeed="21.05" duration="82.00" routeLength="995.01" waitingTime="5.00" waitingCount="1" stopTime="0.00" timeLoss="37.10" rerouteNo="0" devices="tripinfo_southNorth.8 ssm_southNorth.8" vType="carCustom" speedFactor="0.89" vaporized=""/>
    <tripinfo id="southEast.10" depart="82.00" departLane="southJunction_0" departPos="5.10" departSpeed="13.66" departDelay="2.25" arrival="161.00" arrivalLane="junctionEast_0" arrivalPos="492.80" arrivalSpeed="21.79" duration="79.00" routeLength="989.53" waitingTime="0.00" waitingCount="0" stopTime="0.00" timeLoss="32.88" rerouteNo="0" devices="tripinfo_southEast.10 ssm_southEast.10" vType="carCustom" speedFactor="0.97" vaporized=""/>
    <tripinfo id="westEastTop.10" depart="74.00" departLane="westJunction_1" departPos="5.10" departSpeed="14.14" departDelay="1.99" arrival="162.00" arrivalLane="junctionEast_1" arrivalPos="492.80" arrivalSpeed="21.07" duration="88.00" routeLength="994.90" waitingTime="0.00" waitingCount="0" stopTime="0.00" timeLoss="42.60" rerouteNo="0" devices="tripinfo_westEastTop.10 ssm_westEastTop.10" vType="carCustom" speedFactor="1.02" vaporized=""/>
    <tripinfo id="southNorth.9" depart="79.00" departLane="southJunction_1" departPos="5.10" departSpeed="11.43" departDelay="0.25" arrival="165.00" arrivalLane="junctionNorth_0" arrivalPos="492.80" arrivalSpeed="22.18" duration="86.00" routeLength="995.01" waitingTime="0.00" waitingCount="0" stopTime="0.00" timeLoss="40.94" rerouteNo="0" devices="tripinfo_southNorth.9 ssm_southNorth.9" vType="carCustom" speedFactor="0.99" vaporized=""/>
    <tripinfo id="westEastBottom0.9" depart="86.00" departLane="westJunction_0" departPos="5.10" departSpeed="14.13" departDelay="0.91" arrival="166.00" arrivalLane="junctionEast_0" arrivalPos="492.80" arrivalSpeed="21.51" duration="80.00" routeLength="994.90" waitingTime="0.00" waitingCount="0" stopTime="0.00" timeLoss="35.21" rerouteNo="0" devices="tripinfo_westEastBottom0.9 ssm_westEastBottom0.9" vType="carCustom" speedFactor="1.07" vaporized=""/>
    <tripinfo id="westEastTop.11" depart="76.00" departLane="westJunction_1" departPos="5.10" departSpeed="10.02" departDelay="3.10" arrival="168.00" arrivalLane="junctionEast_1" arrivalPos="492.80" arrivalSpeed="21.19" duration="92.00" routeLength="994.90" waitingTime="0.00" waitingCount="0" stopTime="0.00" timeLoss="46.43" rerouteNo="0" devices="tripinfo_westEastTop.11 ssm_westEastTop.11" vType="carCustom" speedFactor="0.94" vaporized=""/>
    <tripinfo id="southEast.11" depart="85.00" departLane="southJunction_0" departPos="5.10" departSpeed="8.43" departDelay="0.01" arrival="172.00" arrivalLane="junctionEast_0" arrivalPos="492.80" arrivalSpeed="21.29" duration="87.00" routeLength="989.53" waitingTime="0.00" waitingCount="0" stopTime="0.00" timeLoss="40.81" rerouteNo="0" devices="tripinfo_southEast.11 ssm_southEast.11" vType="carCustom" speedFactor="0.87" vaporized=""/>
    <tripinfo id="southNorth.10" depart="95.00" departLane="southJunction_1" departPos="5.10" departSpeed="11.63" departDelay="0.86" arrival="172.00" arrivalLane="junctionNorth_0" arrivalPos="492.80" arrivalSpeed="21.20" duration="77.00" routeLength="995.01" waitingTime="2.00" waitingCount="1" stopTime="0.00" timeLoss="32.19" rerouteNo="0" devices="tripinfo_southNorth.10 ssm_southNorth.10" vType="carCustom" speedFactor="0.91" vaporized=""/>
    <tripinfo id="westEastTop.12" depart="78.00" departLane="westJunction_1" departPos="5.10" departSpeed="6.26" departDelay="1.74" arrival="174.00" arrivalLane="junctionEast_1" arrivalPos="492.80" arrivalSpeed="22.10" duration="96.00" routeLength="994.90" waitingTime="0.00" waitingCount="0" stopTime="0.00" timeLoss="50.38" rerouteNo="0" devices="tripinfo_westEastTop.12 ssm_westEastTop.12" vType="carCustom" speedFactor="1.15" vaporized=""/>
    <tripinfo id="westEastBottom0.10" depart="89.00" departLane="westJunction_0" departPos="5.10" departSpeed="10.75" departDelay="0.63" arrival="178.00" arrivalLane="junctionEast_0" arrivalPos="492.80" arrivalSpeed="21.31" duration="89.00" routeLength="994.90" waitingTime="2.00" waitingCount="1" stopTime="0.00" timeLoss="43.78" rerouteNo="0" devices="tripinfo_westEastBottom0.10 ssm_westEastBottom0.10" vType="carCustom" speedFactor="0.90" vaporized=""/>
    <tripinfo id="southEast.12" depart="93.00" departLane="southJunction_0" departPos="5.10" departSpeed="9.97" departDelay="0.95" arrival="179.00" arrivalLane="junctionEast_1" arrivalPos="492.80" arrivalSpeed="21.57" duration="86.00" routeLength="989.53" waitingTime="1.00" waitingCount="1" stopTime="0.00" timeLoss="40.71" rerouteNo="0" devices="tripinfo_southEast.12 ssm_southEast.12" vType="carCustom" speedFactor="0.85" vaporized=""/>
    <tripinfo id="southNorth.11" depart="97.00" departLane="southJunction_1" departPos="5.10" departSpeed="14.83" departDelay="2.81" arrival="181.00" arrivalLane="junctionNorth_0" arrivalPos="492.80" arrivalSpeed="22.09" duration="84.00" routeLength="995.01" waitingTime="5.00" waitingCount="1" stopTime="0.00" timeLoss="38.29" rerouteNo="0" devices="tripinfo_southNorth.11 ssm_southNorth.11" vType="carCustom" speedFactor="0.89" vaporized=""/>
    <tripinfo id="westEastBottom0.11" depart="93.00" departLane="westJunction_0" departPos="5.10" departSpeed="8.91" departDelay="0.96" arrival="184.00" arrivalLane="junctionEast_0" arrivalPos="492.80" arrivalSpeed="22.20" duration="91.00" routeLength="994.90" waitingTime="4.00" waitingCount="1" stopTime="0.00" timeLoss="45.53" rerouteNo="0" devices="tripinfo_westEastBottom0.11 ssm_westEastBottom0.11" vType="carCustom" speedFactor="0.85" vaporized=""/>
    <tripinfo id="westEastTop.13" depart="97.00" departLane="westJunction_1" departPos="5.10" departSpeed="9.35" departDelay="0.45" arrival="185.00" arrivalLane="junctionEast_1" arrivalPos="492.80" arrivalSpeed="21.10" duration="88.00" routeLength="994.90" waitingTime="3.00" waitingCount="1" stopTime="0.00" timeLoss="43.02" rerouteNo="0" devices="tripinfo_westEastTop.13 ssm_westEastTop.13" vType="carCustom" speedFactor="1.19" vaporized=""/>
    <tripinfo id="southNorth.12" depart="110.00" departLane="southJunction_1" departPos="5.10" departSpeed="12.70" departDelay="0.14" arrival="190.00" arrivalLane="junctionNorth_0" arrivalPos="492.80" arrivalSpeed="21.01" duration="80.00" routeLength="995.01" waitingTime="6.00" waitingCount="2" stopTime="0.00" timeLoss="34.60" rerouteNo="0" devices="tripinfo_southNorth.12 ssm_southNorth.12" vType="carCustom" speedFactor="0.92" vaporized=""/>
    <tripinfo id="southEast.13" depart="117.00" departLane="southJunction_0" departPos="5.10" departSpeed="12.34" departDelay="0.61" arrival="190.00" arrivalLane="junctionEast_0" arrivalPos="492.80" arrivalSpeed="20.96" duration="73.00" routeLength="989.53" waitingTime="0.00" waitingCount="0" stopTime="0.00" timeLoss="26.66" rerouteNo="0" devices="tripinfo_southEast.13 ssm_southEast.13" vType="carCustom" speedFactor="1.02" vaporized=""/>
    <tripinfo id="westEastBottom0.12" depart="95.00" departLane="westJunction_0" departPos="5.10" departSpeed="7.35" departDelay="2.55" arrival="191.00" arrivalLane="junctionEast_1" arrivalPos="492.80" arrivalSpeed="21.51" duration="96.00" routeLength="994.90" waitingTime="4.00" waitingCount="1" stopTime="0.00" timeLoss="51.04" rerouteNo="0" devices="tripinfo_westEastBottom0.12 ssm_westEastBottom0.12" vType="carCustom" speedFactor="1.06" vaporized=""/>
    <tripinfo id="westEastBottom0.13" depart="115.00" departLane="westJunction_0" departPos="5.10" departSpeed="11.98" departDelay="0.65" arrival="195.00" arrivalLane="junctionEast_0" arrivalPos="492.80" arrivalSpeed="21.62" duration="80.00" routeLength="994.90" waitingTime="3.00" waitingCount="1" stopTime="0.00" timeLoss="35.13" rerouteNo="0" devices="tripinfo_westEastBottom0.13 ssm_westEastBottom0.13" vType="carCustom" speedFactor="1.07" vaporized=""/>
    <tripinfo id="southNorth.13" depart="115.00" departLane="southJunction_1" departPos="5.10" departSpeed="17.06" departDelay="0.45" arrival="197.00" arrivalLane="junctionNorth_0" arrivalPos="492.80" arrivalSpeed="21.81" duration="82.00" routeLength="995.01" waitingTime="1.00" waitingCount="1" stopTime="0.00" timeLoss="36.55" rerouteNo="0" devices="tripinfo_southNorth.13 ssm_southNorth.13" vType="carCustom" speedFactor="0.82" vaporized=""/>
    <tripinfo id="southEast.14" depart="119.00" departLane="southJunction_0" departPos="5.10" departSpeed="16.89" departDelay="2.22" arrival="197.00" arrivalLane="junctionEast_1" arrivalPos="492.80" arrivalSpeed="21.66" duration="78.00" routeLength="989.53" waitingTime="1.00" waitingCount="1" stopTime="0.00" timeLoss="32.91" rerouteNo="0" devices="tripinfo_southEast.14 ssm_southEast.14" vType="carCustom" speedFactor="1.02" vaporized=""/>
    <tripinfo id="southEast.15" depart="127.00" departLane="southJunction_0" departPos="5.10" departSpeed="13.23" departDelay="0.19" arrival="201.00" arrivalLane="junctionEast_0" arrivalPos="492.80" arrivalSpeed="21.68" duration="74.00" routeLength="989.53" waitingTime="0.00" waitingCount="0" stopTime="0.00" timeLoss="28.00" rerouteNo="0" devices="tripinfo_southEast.15 ssm_southEast.15" vType="carCustom" speedFactor="1.10" vaporized=""/>
    <tripinfo id="westEastTop.14" depart="110.00" departLane="westJunction_1" departPos="5.10" departSpeed="10.28" departDelay="0.76" arrival="203.00" arrivalLane="junctionEast_1" arrivalPos="492.80" arrivalSpeed="22.18" duration="93.00" routeLength="994.90" waitingTime="5.00" waitingCount="1" stopTime="0.00" timeLoss="48.22" rerouteNo="0" devices="tripinfo_westEastTop.14 ssm_westEastTop.14" vType="carCustom" speedFactor="1.05" vaporized=""/>
    <tripinfo id="southNorth.14" depart="119.00" departLane="southJunction_1" departPos="5.10" departSpeed="13.97" departDelay="0.11" arrival="204.00" arrivalLane="junctionNorth_0" arrivalPos="492.80" arrivalSpeed="21.74" duration="85.00" routeLength="995.01" waitingTime="1.00" waitingCount="1" stopTime="0.00" timeLoss="39.66" rerouteNo="0" devices="tripinfo_southNorth.14 ssm_southNorth.14" vType="carCustom" speedFactor="0.90" vaporized=""/>
    <tripinfo id="westEastBottom0.14" depart="120.00" departLane="westJunction_0" departPos="5.10" departSpeed="17.68" departDelay="0.60" arrival="207.00" arrivalLane="junctionEast_0" arrivalPos="492.80" arrivalSpeed="21.42" duration="87.00" routeLength="994.90" waitingTime="4.00" waitingCount="1" stopTime="0.00" timeLoss="41.90" rerouteNo="0" devices="tripinfo_westEastBottom0.14 ssm_westEastBottom0.14" vType="carCustom" speedFactor="0.82" vaporized=""/>
    <tripinfo id="westEastTop.15" depart="112.00" departLane="westJunction_1" departPos="5.10" departSpeed="13.22" departDelay="1.82" arrival="210.00" arrivalLane="junctionEast_1" arrivalPos="492.80" arrivalSpeed="21.28" duration="98.00" routeLength="994.90" waitingTime="7.00" waitingCount="2" stopTime="0.00" timeLoss="52.58" rerouteNo="0" devices="tripinfo_westEastTop.15 ssm_westEastTop.15" vType="carCustom" speedFactor="1.14" vaporized=""/>
    <tripinfo id="southNorth.15" depart="128.00" departLane="southJunction_1" departPos="5.10" departSpeed="12.74" departDelay="0.28" arrival="212.00" arrivalLane="junctionNorth_0" arrivalPos="492.80" arrivalSpeed="21.95" duration="84.00" routeLength="995.01" waitingTime="4.00" waitingCount="1" stopTime="0.00" timeLoss="38.30" rerouteNo="0" devices="tripinfo_southNorth.15 ssm_southNorth.15" vType="carCustom" speedFactor="0.94" vaporized=""/>