<?xml version="1.0" encoding="UTF-8"?>

<!-- generated on 2025-04-29 10:15:13 by Eclipse SUMO sumo Version 1.20.0
<configuration xmlns:xsi="http://www.w3.org/2001/XMLSchema-instance" xsi:noNamespaceSchemaLocation="http://sumo.dlr.de/xsd/sumoConfiguration.xsd">

    <input>
        <net-file value="nets/2lane_unprotected_right/2lane_unprotected_right.net.xml"/>
        <route-files value="nets/2lane_unprotected_right/2lane_unprotected_right.rou.xml"/>
    </input>

    <output>
        <tripinfo-output value="traces/transs50f0.5_s50_f1_random/0255_tripinfo.xml"/>
        <collision-output value="traces/transs50f0.5_s50_f1_random/0255_collisions.xml"/>
        <statistic-output value="traces/transs50f0.5_s50_f1_random/0255_statistics.xml"/>
    </output>

    <processing>
        <collision.action value="teleport"/>
        <collision.check-junctions value="true"/>
        <time-to-teleport value="-1"/>
        <waiting-time-memory value="1000"/>
        <max-depart-delay value="-1"/>
        <default.speeddev value="0.1"/>
    </processing>

    <report>
        <no-warnings value="true"/>
    </report>

    <ssm_device>
        <device.ssm.probability value="1.0"/>
        <device.ssm.measures value="BR"/>
        <device.ssm.file value="/Users/finn/Code/CausalKnowledgeTransfer-4-SafeRL/traces/transs50f0.5_s50_f1_random/0255_ssm.xml"/>
    </ssm_device>

    <traci_server>
        <remote-port value="49170"/>
    </traci_server>

    <random_number>
        <random value="true"/>
    </random_number>

</configuration>
-->

<tripinfos xmlns:xsi="http://www.w3.org/2001/XMLSchema-instance" xsi:noNamespaceSchemaLocation="http://sumo.dlr.de/xsd/tripinfo_file.xsd">
    <tripinfo id="westEastTop.0" depart="4.00" departLane="westJunction_1" departPos="5.10" departSpeed="27.78" departDelay="0.16" arrival="45.00" arrivalLane="junctionEast_1" arrivalPos="492.80" arrivalSpeed="27.54" duration="41.00" routeLength="994.90" waitingTime="0.00" waitingCount="0" stopTime="0.00" timeLoss="4.31" rerouteNo="0" devices="tripinfo_westEastTop.0 ssm_westEastTop.0" vType="carCustom" speedFactor="0.90" vaporized=""/>
    <tripinfo id="southNorth.0" depart="5.00" departLane="southJunction_1" departPos="5.10" departSpeed="27.78" departDelay="0.55" arrival="53.00" arrivalLane="junctionNorth_0" arrivalPos="492.80" arrivalSpeed="26.72" duration="48.00" routeLength="995.01" waitingTime="5.00" waitingCount="1" stopTime="0.00" timeLoss="11.62" rerouteNo="0" devices="tripinfo_southNorth.0 ssm_southNorth.0" vType="carCustom" speedFactor="0.99" vaporized=""/>
    <tripinfo id="westEastTop.1" depart="10.00" departLane="westJunction_1" departPos="5.10" departSpeed="27.39" departDelay="0.18" arrival="56.00" arrivalLane="junctionEast_1" arrivalPos="492.80" arrivalSpeed="26.86" duration="46.00" routeLength="994.90" waitingTime="0.00" waitingCount="0" stopTime="0.00" timeLoss="9.74" rerouteNo="0" devices="tripinfo_westEastTop.1 ssm_westEastTop.1" vType="carCustom" speedFactor="0.94" vaporized=""/>
    <tripinfo id="southEast.0" depart="9.00" departLane="southJunction_0" departPos="5.10" departSpeed="27.78" departDelay="0.46" arrival="60.00" arrivalLane="junctionEast_0" arrivalPos="492.80" arrivalSpeed="26.77" duration="51.00" routeLength="989.53" waitingTime="0.00" waitingCount="0" stopTime="0.00" timeLoss="14.39" rerouteNo="0" devices="tripinfo_southEast.0 ssm_southEast.0" vType="carCustom" speedFactor="1.05" vaporized=""/>
    <tripinfo id="southNorth.1" depart="7.00" departLane="southJunction_1" departPos="5.10" departSpeed="26.95" departDelay="2.25" arrival="63.00" arrivalLane="junctionNorth_0" arrivalPos="492.80" arrivalSpeed="27.07" duration="56.00" routeLength="995.01" waitingTime="0.00" waitingCount="0" stopTime="0.00" timeLoss="19.36" rerouteNo="0" devices="tripinfo_southNorth.1 ssm_southNorth.1" vType="carCustom" speedFactor="1.10" vaporized=""/>
    <tripinfo id="westEastBottom0.0" depart="20.00" departLane="westJunction_0" departPos="5.10" departSpeed="27.78" departDelay="0.19" arrival="70.00" arrivalLane="junctionEast_1" arrivalPos="492.80" arrivalSpeed="26.98" duration="50.00" routeLength="994.90" waitingTime="0.00" waitingCount="0" stopTime="0.00" timeLoss="13.93" rerouteNo="0" devices="tripinfo_westEastBottom0.0 ssm_westEastBottom0.0" vType="carCustom" speedFactor="0.97" vaporized=""/>
    <tripinfo id="southEast.1" depart="11.00" departLane="southJunction_0" departPos="5.10" departSpeed="26.34" departDelay="1.33" arrival="71.00" arrivalLane="junctionEast_0" arrivalPos="492.80" arrivalSpeed="27.01" duration="60.00" routeLength="989.53" waitingTime="0.00" waitingCount="0" stopTime="0.00" timeLoss="22.99" rerouteNo="0" devices="tripinfo_southEast.1 ssm_southEast.1" vType="carCustom" speedFactor="1.05" vaporized=""/>
    <tripinfo id="southNorth.2" depart="12.00" departLane="southJunction_1" departPos="5.10" departSpeed="18.16" departDelay="0.58" arrival="71.00" arrivalLane="junctionNorth_0" arrivalPos="492.80" arrivalSpeed="26.49" duration="59.00" routeLength="995.01" waitingTime="0.00" waitingCount="0" stopTime="0.00" timeLoss="22.98" rerouteNo="0" devices="tripinfo_southNorth.2 ssm_southNorth.2" vType="carCustom" speedFactor="0.91" vaporized=""/>
    <tripinfo id="southNorth.3" depart="16.00" departLane="southJunction_1" departPos="5.10" departSpeed="14.21" departDelay="0.38" arrival="80.00" arrivalLane="junctionNorth_0" arrivalPos="492.80" arrivalSpeed="27.30" duration="64.00" routeLength="995.01" waitingTime="0.00" waitingCount="0" stopTime="0.00" timeLoss="27.64" rerouteNo="0" devices="tripinfo_southNorth.3 ssm_southNorth.3" vType="carCustom" speedFactor="0.99" vaporized=""/>
    <tripinfo id="southEast.2" depart="23.00" departLane="southJunction_0" departPos="5.10" departSpeed="14.89" departDelay="0.10" arrival="82.00" arrivalLane="junctionEast_0" arrivalPos="492.80" arrivalSpeed="26.79" duration="59.00" routeLength="989.53" waitingTime="0.00" waitingCount="0" stopTime="0.00" timeLoss="22.08" rerouteNo="0" devices="tripinfo_southEast.2 ssm_southEast.2" vType="carCustom" speedFactor="1.05" vaporized=""/>
    <tripinfo id="westEastTop.2" depart="23.00" departLane="westJunction_1" departPos="5.10" departSpeed="25.44" departDelay="0.10" arrival="85.00" arrivalLane="junctionEast_1" arrivalPos="492.80" arrivalSpeed="27.21" duration="62.00" routeLength="994.90" waitingTime="3.00" waitingCount="1" stopTime="0.00" timeLoss="25.77" rerouteNo="0" devices="tripinfo_westEastTop.2 ssm_westEastTop.2" vType="carCustom" speedFactor="1.10" vaporized=""/>
    <tripinfo id="southNorth.4" depart="28.00" departLane="southJunction_1" departPos="5.10" departSpeed="13.26" departDelay="0.07" arrival="89.00" arrivalLane="junctionNorth_0" arrivalPos="492.80" arrivalSpeed="27.77" duration="61.00" routeLength="995.01" waitingTime="0.00" waitingCount="0" stopTime="0.00" timeLoss="24.89" rerouteNo="0" devices="tripinfo_southNorth.4 ssm_southNorth.4" vType="carCustom" speedFactor="0.88" vaporized=""/>
    <tripinfo id="southEast.3" depart="31.00" departLane="southJunction_0" departPos="5.10" departSpeed="15.98" departDelay="0.90" arrival="92.00" arrivalLane="junctionEast_0" arrivalPos="492.80" arrivalSpeed="27.21" duration="61.00" routeLength="989.53" waitingTime="0.00" waitingCount="0" stopTime="0.00" timeLoss="23.41" rerouteNo="0" devices="tripinfo_southEast.3 ssm_southEast.3" vType="carCustom" speedFactor="1.14" vaporized=""/>
    <tripinfo id="westEastBottom0.1" depart="33.00" departLane="westJunction_0" departPos="5.10" departSpeed="27.78" departDelay="0.24" arrival="95.00" arrivalLane="junctionEast_1" arrivalPos="492.80" arrivalSpeed="26.83" duration="62.00" routeLength="994.90" waitingTime="1.00" waitingCount="1" stopTime="0.00" timeLoss="26.09" rerouteNo="0" devices="tripinfo_westEastBottom0.1 ssm_westEastBottom0.1" vType="carCustom" speedFactor="1.11" vaporized=""/>
    <tripinfo id="westEastTop.3" depart="32.00" departLane="westJunction_1" departPos="5.10" departSpeed="12.49" departDelay="0.04" arrival="103.00" arrivalLane="junctionEast_1" arrivalPos="492.80" arrivalSpeed="27.54" duration="71.00" routeLength="994.90" waitingTime="0.00" waitingCount="0" stopTime="0.00" timeLoss="34.97" rerouteNo="0" devices="tripinfo_westEastTop.3 ssm_westEastTop.3" vType="carCustom" speedFactor="1.07" vaporized=""/>
    <tripinfo id="southEast.4" depart="33.00" departLane="southJunction_0" departPos="5.10" departSpeed="14.89" departDelay="2.28" arrival="108.00" arrivalLane="junctionEast_0" arrivalPos="492.80" arrivalSpeed="26.92" duration="75.00" routeLength="989.53" waitingTime="5.00" waitingCount="1" stopTime="0.00" timeLoss="38.01" rerouteNo="0" devices="tripinfo_southEast.4 ssm_southEast.4" vType="carCustom" speedFactor="0.99" vaporized=""/>
    <tripinfo id="southNorth.5" depart="61.00" departLane="southJunction_1" departPos="5.10" departSpeed="11.05" departDelay="0.98" arrival="109.00" arrivalLane="junctionNorth_0" arrivalPos="492.80" arrivalSpeed="27.12" duration="48.00" routeLength="995.01" waitingTime="0.00" waitingCount="0" stopTime="0.00" timeLoss="12.07" rerouteNo="0" devices="tripinfo_southNorth.5 ssm_southNorth.5" vType="carCustom" speedFactor="1.04" vaporized=""/>
    <tripinfo id="westEastTop.4" depart="41.00" departLane="westJunction_1" departPos="5.10" departSpeed="14.96" departDelay="0.19" arrival="111.00" arrivalLane="junctionEast_1" arrivalPos="492.80" arrivalSpeed="26.49" duration="70.00" routeLength="994.90" waitingTime="0.00" waitingCount="0" stopTime="0.00" timeLoss="33.57" rerouteNo="0" devices="tripinfo_westEastTop.4 ssm_westEastTop.4" vType="carCustom" speedFactor="0.88" vaporized=""/>
    <tripinfo id="westEastBottom0.2" depart="61.00" departLane="westJunction_0" departPos="5.10" departSpeed="27.78" departDelay="0.21" arrival="118.00" arrivalLane="junctionEast_1" arrivalPos="492.80" arrivalSpeed="26.89" duration="57.00" routeLength="994.90" waitingTime="0.00" waitingCount="0" stopTime="0.00" timeLoss="20.80" rerouteNo="0" devices="tripinfo_westEastBottom0.2 ssm_westEastBottom0.2" vType="carCustom" speedFactor="0.96" vaporized=""/>
    <tripinfo id="southEast.5" depart="60.00" departLane="southJunction_0" departPos="5.10" departSpeed="12.20" departDelay="0.69" arrival="120.00" arrivalLane="junctionEast_0" arrivalPos="492.80" arrivalSpeed="27.10" duration="60.00" routeLength="989.53" waitingTime="0.00" waitingCount="0" stopTime="0.00" timeLoss="23.17" rerouteNo="0" devices="tripinfo_southEast.5 ssm_southEast.5" vType="carCustom" speedFactor="0.91" vaporized=""/>
    <tripinfo id="westEastTop.5" depart="48.00" departLane="westJunction_1" departPos="5.10" departSpeed="15.54" departDelay="0.87" arrival="125.00" arrivalLane="junctionEast_1" arrivalPos="492.80" arrivalSpeed="27.36" duration="77.00" routeLength="994.90" waitingTime="0.00" waitingCount="0" stopTime="0.00" timeLoss="40.85" rerouteNo="0" devices="tripinfo_westEastTop.5 ssm_westEastTop.5" vType="carCustom" speedFactor="1.17" vaporized=""/>
    <tripinfo id="southNorth.6" depart="65.00" departLane="southJunction_1" departPos="5.10" departSpeed="18.01" departDelay="0.92" arrival="127.00" arrivalLane="junctionNorth_0" arrivalPos="492.80" arrivalSpeed="27.70" duration="62.00" routeLength="995.01" waitingTime="2.00" waitingCount="1" stopTime="0.00" timeLoss="25.90" rerouteNo="0" devices="tripinfo_southNorth.6 ssm_southNorth.6" vType="carCustom" speedFactor="0.84" vaporized=""/>
    <tripinfo id="westEastTop.6" depart="66.00" departLane="westJunction_1" departPos="5.10" departSpeed="12.31" departDelay="0.06" arrival="132.00" arrivalLane="junctionEast_1" arrivalPos="492.80" arrivalSpeed="26.61" duration="66.00" routeLength="994.90" waitingTime="0.00" waitingCount="0" stopTime="0.00" timeLoss="29.75" rerouteNo="0" devices="tripinfo_westEastTop.6 ssm_westEastTop.6" vType="carCustom" speedFactor="1.13" vaporized=""/>
    <tripinfo id="southEast.6" depart="73.00" departLane="southJunction_0" departPos="5.10" departSpeed="18.39" departDelay="0.50" arrival="134.00" arrivalLane="junctionEast_0" arrivalPos="492.80" arrivalSpeed="27.62" duration="61.00" routeLength="989.53" waitingTime="0.00" waitingCount="0" stopTime="0.00" timeLoss="23.69" rerouteNo="0" devices="tripinfo_southEast.6 ssm_southEast.6" vType="carCustom" speedFactor="1.09" vaporized=""/>
    <tripinfo id="southNorth.7" depart="69.00" departLane="southJunction_1" departPos="5.10" departSpeed="13.41" departDelay="0.68" arrival="138.00" arrivalLane="junctionNorth_0" arrivalPos="492.80" arrivalSpeed="27.37" duration="69.00" routeLength="995.01" waitingTime="0.00" waitingCount="0" stopTime="0.00" timeLoss="32.33" rerouteNo="0" devices="tripinfo_southNorth.7 ssm_southNorth.7" vType="carCustom" speedFactor="1.03" vaporized=""/>
    <tripinfo id="westEastTop.7" depart="68.00" departLane="westJunction_1" departPos="5.10" departSpeed="16.71" departDelay="0.32" arrival="139.00" arrivalLane="junctionEast_1" arrivalPos="492.80" arrivalSpeed="27.22" duration="71.00" routeLength="994.90" waitingTime="0.00" waitingCount="0" stopTime="0.00" timeLoss="34.94" rerouteNo="0" devices="tripinfo_westEastTop.7 ssm_westEastTop.7" vType="carCustom" speedFactor="1.10" vaporized=""/>
    <tripinfo id="southEast.7" depart="75.00" departLane="southJunction_0" departPos="5.10" departSpeed="19.81" departDelay="2.33" arrival="142.00" arrivalLane="junctionEast_0" arrivalPos="492.80" arrivalSpeed="26.68" duration="67.00" routeLength="989.53" waitingTime="0.00" waitingCount="0" stopTime="0.00" timeLoss="29.83" rerouteNo="0" devices="tripinfo_southEast.7 ssm_southEast.7" vType="carCustom" speedFactor="1.19" vaporized=""/>
    <tripinfo id="westEastBottom0.6" depart="115.00" departLane="westJunction_0" departPos="5.10" departSpeed="14.49" departDelay="0.20" arrival="146.00" arrivalLane="junctionEast_0" arrivalPos="492.80" arrivalSpeed="11.91" duration="31.00" routeLength="994.90" waitingTime="0.00" waitingCount="0" stopTime="0.00" timeLoss="12.49" rerouteNo="0" devices="tripinfo_westEastBottom0.6 ssm_westEastBottom0.6" vType="carCustom" speedFactor="0.88" vaporized="teleport"/>
    <tripinfo id="westEastBottom0.3" depart="78.00" departLane="westJunction_0" departPos="5.10" departSpeed="18.17" departDelay="0.11" arrival="147.00" arrivalLane="junctionEast_1" arrivalPos="492.80" arrivalSpeed="27.17" duration="69.00" routeLength="994.90" waitingTime="0.00" waitingCount="0" stopTime="0.00" timeLoss="32.49" rerouteNo="0" devices="tripinfo_westEastBottom0.3 ssm_westEastBottom0.3" vType="carCustom" speedFactor="0.84" vaporized=""/>
    <tripinfo id="southNorth.8" depart="73.00" departLane="southJunction_1" departPos="5.10" departSpeed="11.89" departDelay="0.38" arrival="148.00" arrivalLane="junctionNorth_0" arrivalPos="492.80" arrivalSpeed="26.89" duration="75.00" routeLength="995.01" waitingTime="1.00" waitingCount="1" stopTime="0.00" timeLoss="39.16" rerouteNo="0" devices="tripinfo_southNorth.8 ssm_southNorth.8" vType="carCustom" speedFactor="1.06" vaporized=""/>
    <tripinfo id="westEastBottom0.4" depart="93.00" departLane="westJunction_0" departPos="5.10" departSpeed="27.78" departDelay="0.93" arrival="149.00" arrivalLane="junctionEast_0" arrivalPos="492.80" arrivalSpeed="27.40" duration="56.00" routeLength="994.90" waitingTime="0.00" waitingCount="0" stopTime="0.00" timeLoss="19.92" rerouteNo="0" devices="tripinfo_westEastBottom0.4 ssm_westEastBottom0.4" vType="carCustom" speedFactor="1.08" vaporized=""/>
    <tripinfo id="westEastTop.8" depart="75.00" departLane="westJunction_1" departPos="5.10" departSpeed="11.50" departDelay="0.12" arrival="155.00" arrivalLane="junctionEast_1" arrivalPos="492.80" arrivalSpeed="27.72" duration="80.00" routeLength="994.90" waitingTime="0.00" waitingCount="0" stopTime="0.00" timeLoss="43.74" rerouteNo="0" devices="tripinfo_westEastTop.8 ssm_westEastTop.8" vType="carCustom" speedFactor="0.97" vaporized=""/>
    <tripinfo id="southEast.8" depart="87.00" departLane="southJunction_0" departPos="5.10" departSpeed="12.56" departDelay="0.97" arrival="156.00" arrivalLane="junctionEast_0" arrivalPos="492.80" arrivalSpeed="27.12" duration="69.00" routeLength="989.53" waitingTime="0.00" waitingCount="0" stopTime="0.00" timeLoss="32.47" rerouteNo="0" devices="tripinfo_southEast.8 ssm_southEast.8" vType="carCustom" speedFactor="0.94" vaporized=""/>
    <tripinfo id="southNorth.9" depart="76.00" departLane="southJunction_1" departPos="5.10" departSpeed="8.64" departDelay="0.81" arrival="158.00" arrivalLane="junctionNorth_0" arrivalPos="492.80" arrivalSpeed="27.35" duration="82.00" routeLength="995.01" waitingTime="2.00" waitingCount="1" stopTime="0.00" timeLoss="45.98" rerouteNo="0" devices="tripinfo_southNorth.9 ssm_southNorth.9" vType="carCustom" speedFactor="1.08" vaporized=""/>
    <tripinfo id="southEast.9" depart="90.00" departLane="southJunction_0" departPos="5.10" departSpeed="15.81" departDelay="0.54" arrival="163.00" arrivalLane="junctionEast_1" arrivalPos="492.80" arrivalSpeed="26.77" duration="73.00" routeLength="989.53" waitingTime="0.00" waitingCount="0" stopTime="0.00" timeLoss="35.29" rerouteNo="0" devices="tripinfo_southEast.9 ssm_southEast.9" vType="carCustom" speedFactor="1.06" vaporized=""/>
    <tripinfo id="westEastBottom0.5" depart="95.00" departLane="westJunction_0" departPos="5.10" departSpeed="26.85" departDelay="0.35" arrival="163.00" arrivalLane="junctionEast_0" arrivalPos="492.80" arrivalSpeed="27.63" duration="68.00" routeLength="994.90" waitingTime="0.00" waitingCount="0" stopTime="0.00" timeLoss="31.89" rerouteNo="0" devices="tripinfo_westEastBottom0.5 ssm_westEastBottom0.5" vType="carCustom" speedFactor="0.91" vaporized=""/>
    <tripinfo id="westEastTop.9" depart="78.00" departLane="westJunction_1" departPos="5.10" departSpeed="10.90" departDelay="0.47" arrival="170.00" arrivalLane="junctionEast_1" arrivalPos="492.80" arrivalSpeed="27.76" duration="92.00" routeLength="994.90" waitingTime="1.00" waitingCount="1" stopTime="0.00" timeLoss="55.86" rerouteNo="0" devices="tripinfo_westEastTop.9 ssm_westEastTop.9" vType="carCustom" speedFactor="0.95" vaporized=""/>
    <tripinfo id="southEast.10" depart="99.00" departLane="southJunction_0" departPos="5.10" departSpeed="11.01" departDelay="0.63" arrival="171.00" arrivalLane="junctionEast_0" arrivalPos="492.80" arrivalSpeed="27.36" duration="72.00" routeLength="989.53" waitingTime="0.00" waitingCount="0" stopTime="0.00" timeLoss="34.83" rerouteNo="0" devices="tripinfo_southEast.10 ssm_southEast.10" vType="carCustom" speedFactor="0.90" vaporized=""/>
    <tripinfo id="westEastTop.10" depart="80.00" departLane="westJunction_1" departPos="5.10" departSpeed="8.01" departDelay="2.12" arrival="177.00" arrivalLane="junctionEast_1" arrivalPos="492.80" arrivalSpeed="27.69" duration="97.00" routeLength="994.90" waitingTime="0.00" waitingCount="0" stopTime="0.00" timeLoss="60.81" rerouteNo="0" devices="tripinfo_westEastTop.10 ssm_westEastTop.10" vType="carCustom" speedFactor="0.96" vaporized=""/>
    <tripinfo id="southNorth.10" depart="83.00" departLane="southJunction_1" departPos="5.10" departSpeed="7.74" departDelay="0.06" arrival="178.00" arrivalLane="junctionNorth_0" arrivalPos="492.80" arrivalSpeed="27.42" duration="95.00" routeLength="995.01" waitingTime="13.00" waitingCount="1" stopTime="0.00" timeLoss="58.34" rerouteNo="0" devices="tripinfo_southNorth.10 ssm_southNorth.10" vType="carCustom" speedFactor="0.93" vaporized=""/>
    <tripinfo id="southEast.11" depart="106.00" departLane="southJunction_0" departPos="5.10" departSpeed="12.50" departDelay="0.01" arrival="179.00" arrivalLane="junctionEast_0" arrivalPos="492.80" arrivalSpeed="26.73" duration="73.00" routeLength="989.53" waitingTime="0.00" waitingCount="0" stopTime="0.00" timeLoss="35.37" rerouteNo="0" devices="tripinfo_southEast.11 ssm_southEast.11" vType="carCustom" speedFactor="0.89" vaporized=""/>
    <tripinfo id="westEastTop.11" depart="83.00" departLane="westJunction_1" departPos="5.10" departSpeed="4.14" departDelay="4.11" arrival="184.00" arrivalLane="junctionEast_1" arrivalPos="492.80" arrivalSpeed="27.57" duration="101.00" routeLength="994.90" waitingTime="0.00" waitingCount="0" stopTime="0.00" timeLoss="64.77" rerouteNo="0" devices="tripinfo_westEastTop.11 ssm_westEastTop.11" vType="carCustom" speedFactor="1.09" vaporized=""/>
    <tripinfo id="westEastBottom0.7" depart="118.00" departLane="westJunction_0" departPos="5.10" departSpeed="16.41" departDelay="0.16" arrival="187.00" arrivalLane="junctionEast_0" arrivalPos="492.80" arrivalSpeed="27.19" duration="69.00" routeLength="994.90" waitingTime="4.00" waitingCount="1" stopTime="0.00" timeLoss="32.23" rerouteNo="0" devices="tripinfo_westEastBottom0.7 ssm_westEastBottom0.7" vType="carCustom" speedFactor="0.95" vaporized=""/>
    <tripinfo id="westEastTop.12" depart="87.00" departLane="westJunction_1" departPos="5.10" departSpeed="4.42" departDelay="7.21" arrival="191.00" arrivalLane="junctionEast_1" arrivalPos="492.80" arrivalSpeed="27.69" duration="104.00" routeLength="994.90" waitingTime="1.00" waitingCount="1" stopTime="0.00" timeLoss="67.88" rerouteNo="0" devices="tripinfo_westEastTop.12 ssm_westEastTop.12" vType="carCustom" speedFactor="0.84" vaporized=""/>
    <tripinfo id="southNorth.11" depart="96.00" departLane="southJunction_1" departPos="5.10" departSpeed="9.32" departDelay="0.35" arrival="193.00" arrivalLane="junctionNorth_0" arrivalPos="492.80" arrivalSpeed="27.04" duration="97.00" routeLength="995.01" waitingTime="15.00" waitingCount="2" stopTime="0.00" timeLoss="60.94" rerouteNo="0" devices="tripinfo_southNorth.11 ssm_southNorth.11" vType="carCustom" speedFactor="0.85" vaporized=""/>
    <tripinfo id="southEast.12" depart="108.00" departLane="southJunction_0" departPos="5.10" departSpeed="11.75" departDelay="0.36" arrival="194.00" arrivalLane="junctionEast_0" arrivalPos="492.80" arrivalSpeed="26.93" duration="86.00" routeLength="989.53" waitingTime="5.00" waitingCount="1" stopTime="0.00" timeLoss="49.51" rerouteNo="0" devices="tripinfo_southEast.12 ssm_southEast.12" vType="carCustom" speedFactor="1.35" vaporized=""/>
    <tripinfo id="westEastTop.13" depart="91.00" departLane="westJunction_1" departPos="5.10" departSpeed="4.37" departDelay="8.66" arrival="198.00" arrivalLane="junctionEast_1" arrivalPos="492.80" arrivalSpeed="27.00" duration="107.00" routeLength="994.90" waitingTime="0.00" waitingCount="0" stopTime="0.00" timeLoss="70.61" rerouteNo="0" devices="tripinfo_westEastTop.13 ssm_westEastTop.13" vType="carCustom" speedFactor="1.14" vaporized=""/>
    <tripinfo id="southEast.13" depart="138.00" departLane="southJunction_0" departPos="5.10" departSpeed="11.11" departDelay="0.35" arrival="202.00" arrivalLane="junctionEast_0" arrivalPos="492.80" arrivalSpeed="26.72" duration="64.00" routeLength="989.53" waitingTime="0.00" waitingCount="0" stopTime="0.00" timeLoss="26.80" rerouteNo="0" devices="tripinfo_southEast.13 ssm_southEast.13" vType="carCustom" speedFactor="1.18" vaporized=""/>
    <tripinfo id="southNorth.12" depart="132.00" departLane="southJunction_1" departPos="5.10" departSpeed="9.44" departDelay="0.89" arrival="203.00" arrivalLane="junctionNorth_0" arrivalPos="492.80" arrivalSpeed="27.75" duration="71.00" routeLength="995.01" waitingTime="4.00" waitingCount="1" stopTime="0.00" timeLoss="35.18" rerouteNo="0" devices="tripinfo_southNorth.12 ssm_southNorth.12" vType="carCustom" speedFactor="1.11" vaporized=""/>
    <tripinfo id="westEastBottom0.8" depart="123.00" departLane="westJunction_0" departPos="5.10" departSpeed="10.58" departDelay="0.31" arrival="205.00" arrivalLane="junctionEast_1" arrivalPos="492.80" arrivalSpeed="27.51" duration="82.00" routeLength="994.90" waitingTime="0.00" waitingCount="0" stopTime="0.00" timeLoss="45.49" rerouteNo="0" devices="tripinfo_westEastBottom0.8 ssm_westEastBottom0.8" vType="carCustom" speedFactor="0.99" vaporized=""/>
    <tripinfo id="westEastBottom0.9" depart="127.00" departLane="westJunction_0" departPos="5.10" departSpeed="10.34" departDelay="0.60" arrival="209.00" arrivalLane="junctionEast_0" arrivalPos="492.80" arrivalSpeed="27.69" duration="82.00" routeLength="994.90" waitingTime="0.00" waitingCount="0" stopTime="0.00" timeLoss="45.54" rerouteNo="0" devices="tripinfo_westEastBottom0.9 ssm_westEastBottom0.9" vType="carCustom" speedFactor="1.04" vaporized=""/>
    <tripinfo id="westEastTop.14" depart="95.00" departLane="westJunction_1" departPos="5.10" departSpeed="3.38" departDelay="7.13" arrival="211.00" arrivalLane="junctionEast_1" arrivalPos="492.80" arrivalSpeed="26.75" duration="116.00" routeLength="994.90" waitingTime="2.00" waitingCount="1" stopTime="0.00" timeLoss="80.18" rerouteNo="0" devices="tripinfo_westEastTop.14 ssm_westEastTop.14" vType="carCustom" speedFactor="0.92" vaporized=""/>
    <tripinfo id="southEast.14" depart="140.00" departLane="southJunction_0" departPos="5.10" departSpeed="15.77" departDelay="0.14" arrival="216.00" arrivalLane="junctionEast_0" arrivalPos="492.80" arrivalSpeed="27.61" duration="76.00" routeLength="989.53" waitingTime="0.00" waitingCount="0" stopTime="0.00" timeLoss="38.76" rerouteNo="0" devices="tripinfo_southEast.14 ssm_southEast.14" vType="carCustom" speedFactor="1.08" vaporized=""/>
    <tripinfo id="westEastTop.15" depart="99.00" departLane="westJunction_1" departPos="5.10" departSpeed="3.42" departDelay="8.26" arrival="218.00" arrivalLane="junctionEast_1" arrivalPos="492.80" arrivalSpeed="27.66" duration="119.00" routeLength="994.90" waitingTime="3.00" waitingCount="1" stopTime="0.00" timeLoss="82.45" rerouteNo="0" devices="tripinfo_westEastTop.15 ssm_westEastTop.15" vType="carCustom" speedFactor="1.19" vaporized=""/>
    <tripinfo id="southNorth.13" depart="141.00" departLane="southJunction_1" departPos="5.10" departSpeed="22.48" departDelay="0.88" arrival="218.00" arrivalLane="junctionNorth_0" arrivalPos="492.80" arrivalSpeed="27.51" duration="77.00" routeLength="995.01" waitingTime="9.00" waitingCount="1" stopTime="0.00" timeLoss="40.47" rerouteNo="0" devices="tripinfo_southNorth.13 ssm_southNorth.13" vType="carCustom" speedFactor="1.08" vaporized=""/>
    <tripinfo id="westEastBottom0.10" depart="129.00" departLane="westJunction_0" departPos="5.10" departSpeed="8.00" departDelay="1.77" arrival="222.00" arrivalLane="junctionEast_0" arrivalPos="492.80" arrivalSpeed="27.55" duration="93.00" routeLength="994.90" waitingTime="0.00" waitingCount="0" stopTime="0.00" timeLoss="56.95" rerouteNo="0" devices="tripinfo_westEastBottom0.10 ssm_westEastBottom0.10" vType="carCustom" speedFactor="1.05" vaporized=""/>
    <tripinfo id="westEastTop.16" depart="104.00" departLane="westJunction_1" departPos="5.10" departSpeed="3.39" departDelay="7.74" arrival="225.00" arrivalLane="junctionEast_1" arrivalPos="492.80" arrivalSpeed="27.59" duration="121.00" routeLength="994.90" waitingTime="0.00" waitingCount="0" stopTime="0.00" timeLoss="84.33" rerouteNo="0" devices="tripinfo_westEastTop.16 ssm_westEastTop.16" vType="carCustom" speedFactor="1.05" vaporized=""/>
    <tripinfo id="southNorth.14" depart="152.00" departLane="southJunction_1" departPos="5.10" departSpeed="16.92" departDelay="0.69" arrival="228.00" arrivalLane="junctionNorth_0" arrivalPos="492.80" arrivalSpeed="26.81" duration="76.00" routeLength="995.01" waitingTime="4.00" waitingCount="1" stopTime="0.00" timeLoss="40.18" rerouteNo="0" devices="tripinfo_southNorth.14 ssm_southNorth.14" vType="carCustom" speedFactor="1.12" vaporized=""/>
    <tripinfo id="southEast.15" depart="144.00" departLane="southJunction_0" departPos="5.10" departSpeed="10.60" departDelay="1.00" arrival="229.00" arrivalLane="junctionEast_0" arrivalPos="492.80" arrivalSpeed="27.47" duration="85.00" routeLength="989.53" waitingTime="0.00" waitingCount="0" stopTime="0.00" timeLoss="47.20" rerouteNo="0" devices="tripinfo_southEast.15 ssm_southEast.15" vType="carCustom" speedFactor="0.87" vaporized=""/>
    <tripinfo id="westEastTop.17" depart="109.00" departLane="westJunction_1" departPos="5.10" departSpeed="3.43" departDelay="9.93" arrival="231.00" arrivalLane="junctionEast_1" arrivalPos="492.80" arrivalSpeed="27.39" duration="122.00" routeLength="994.90" waitingTime="0.00" waitingCount="0" stopTime="0.00" timeLoss="86.01" rerouteNo="0" devices="tripinfo_westEastTop.17 ssm_westEastTop.17" vType="carCustom" speedFactor="0.87" vaporized=""/>
    <tripinfo id="westEastBottom0.11" depart="152.00" departLane="westJunction_0" departPos="5.10" departSpeed="10.60" departDelay="0.11" arrival="235.00" arrivalLane="junctionEast_0" arrivalPos="492.80" arrivalSpeed="26.76" duration="83.00" routeLength="994.90" waitingTime="0.00" waitingCount="0" stopTime="0.00" timeLoss="46.99" rerouteNo="0" devices="tripinfo_westEastBottom0.11 ssm_westEastBottom0.11" vType="carCustom" speedFactor="1.08" vaporized=""/>
    <tripinfo id="westEastTop.18" depart="114.00" departLane="westJunction_1" departPos="5.10" departSpeed="3.16" departDelay="11.95" arrival="238.00" arrivalLane="junctionEast_1" arrivalPos="492.80" arrivalSpeed="27.34" duration="124.00" routeLength="994.90" waitingTime="0.00" waitingCount="0" stopTime="0.00" timeLoss="87.44" rerouteNo="0" devices="tripinfo_westEastTop.18 ssm_westEastTop.18" vType="carCustom" speedFactor="1.06" vaporized=""/>
    <tripinfo id="southNorth.15" depart="154.00" departLane="southJunction_1" departPos="5.10" departSpeed="18.19" departDelay="0.69" arrival="238.00" arrivalLane="junctionNorth_0" arrivalPos="492.80" arrivalSpeed="26.60" duration="84.00" routeLength="995.01" waitingTime="5.00" waitingCount="1" stopTime="0.00" timeLoss="48.09" rerouteNo="0" devices="tripinfo_southNorth.15 ssm_southNorth.15" vType="carCustom" speedFactor="1.03" vaporized=""/>