<?xml version="1.0" encoding="UTF-8"?>

<!-- generated on 2025-04-29 10:17:27 by Eclipse SUMO sumo Version 1.20.0
<configuration xmlns:xsi="http://www.w3.org/2001/XMLSchema-instance" xsi:noNamespaceSchemaLocation="http://sumo.dlr.de/xsd/sumoConfiguration.xsd">

    <input>
        <net-file value="nets/2lane_unprotected_right/2lane_unprotected_right.net.xml"/>
        <route-files value="nets/2lane_unprotected_right/2lane_unprotected_right.rou.xml"/>
    </input>

    <output>
        <tripinfo-output value="traces/transs50f0.5_s50_f1_random/0256_tripinfo.xml"/>
        <collision-output value="traces/transs50f0.5_s50_f1_random/0256_collisions.xml"/>
        <statistic-output value="traces/transs50f0.5_s50_f1_random/0256_statistics.xml"/>
    </output>

    <processing>
        <collision.action value="teleport"/>
        <collision.check-junctions value="true"/>
        <time-to-teleport value="-1"/>
        <waiting-time-memory value="1000"/>
        <max-depart-delay value="-1"/>
        <default.speeddev value="0.1"/>
    </processing>

    <report>
        <no-warnings value="true"/>
    </report>

    <ssm_device>
        <device.ssm.probability value="1.0"/>
        <device.ssm.measures value="BR"/>
        <device.ssm.file value="/Users/finn/Code/CausalKnowledgeTransfer-4-SafeRL/traces/transs50f0.5_s50_f1_random/0256_ssm.xml"/>
    </ssm_device>

    <traci_server>
        <remote-port value="49182"/>
    </traci_server>

    <random_number>
        <random value="true"/>
    </random_number>

</configuration>
-->

<tripinfos xmlns:xsi="http://www.w3.org/2001/XMLSchema-instance" xsi:noNamespaceSchemaLocation="http://sumo.dlr.de/xsd/tripinfo_file.xsd">
    <tripinfo id="southEast.0" depart="1.00" departLane="southJunction_0" departPos="5.10" departSpeed="13.89" departDelay="0.10" arrival="81.00" arrivalLane="junctionEast_0" arrivalPos="492.80" arrivalSpeed="13.54" duration="80.00" routeLength="989.53" waitingTime="0.00" waitingCount="0" stopTime="0.00" timeLoss="7.64" rerouteNo="0" devices="tripinfo_southEast.0 ssm_southEast.0" vType="carCustom" speedFactor="0.94" vaporized=""/>
    <tripinfo id="westEastTop.0" depart="14.00" departLane="westJunction_1" departPos="5.10" departSpeed="13.89" departDelay="0.88" arrival="94.00" arrivalLane="junctionEast_0" arrivalPos="492.80" arrivalSpeed="13.47" duration="80.00" routeLength="994.90" waitingTime="0.00" waitingCount="0" stopTime="0.00" timeLoss="8.27" rerouteNo="0" devices="tripinfo_westEastTop.0 ssm_westEastTop.0" vType="carCustom" speedFactor="0.97" vaporized=""/>
    <tripinfo id="westEastBottom0.0" depart="15.00" departLane="westJunction_0" departPos="5.10" departSpeed="13.89" departDelay="0.48" arrival="96.00" arrivalLane="junctionEast_1" arrivalPos="492.80" arrivalSpeed="13.67" duration="81.00" routeLength="994.90" waitingTime="0.00" waitingCount="0" stopTime="0.00" timeLoss="8.80" rerouteNo="0" devices="tripinfo_westEastBottom0.0 ssm_westEastBottom0.0" vType="carCustom" speedFactor="1.02" vaporized=""/>
    <tripinfo id="southEast.1" depart="5.00" departLane="southJunction_0" departPos="5.10" departSpeed="13.59" departDelay="0.28" arrival="109.00" arrivalLane="junctionEast_1" arrivalPos="492.80" arrivalSpeed="12.84" duration="104.00" routeLength="989.53" waitingTime="0.00" waitingCount="0" stopTime="0.00" timeLoss="31.88" rerouteNo="0" devices="tripinfo_southEast.1 ssm_southEast.1" vType="carCustom" speedFactor="1.09" vaporized=""/>
    <tripinfo id="southEast.2" depart="7.00" departLane="southJunction_0" departPos="5.10" departSpeed="12.08" departDelay="0.72" arrival="110.00" arrivalLane="junctionEast_0" arrivalPos="492.80" arrivalSpeed="13.41" duration="103.00" routeLength="989.53" waitingTime="0.00" waitingCount="0" stopTime="0.00" timeLoss="30.41" rerouteNo="0" devices="tripinfo_southEast.2 ssm_southEast.2" vType="carCustom" speedFactor="1.08" vaporized=""/>
    <tripinfo id="westEastTop.1" depart="16.00" departLane="westJunction_1" departPos="5.10" departSpeed="13.88" departDelay="2.20" arrival="122.00" arrivalLane="junctionEast_0" arrivalPos="492.80" arrivalSpeed="13.59" duration="106.00" routeLength="994.90" waitingTime="0.00" waitingCount="0" stopTime="0.00" timeLoss="34.27" rerouteNo="0" devices="tripinfo_westEastTop.1 ssm_westEastTop.1" vType="carCustom" speedFactor="0.93" vaporized=""/>
    <tripinfo id="westEastBottom0.1" depart="32.00" departLane="westJunction_0" departPos="5.10" departSpeed="13.63" departDelay="0.24" arrival="123.00" arrivalLane="junctionEast_1" arrivalPos="492.80" arrivalSpeed="12.87" duration="91.00" routeLength="994.90" waitingTime="0.00" waitingCount="0" stopTime="0.00" timeLoss="18.70" rerouteNo="0" devices="tripinfo_westEastBottom0.1 ssm_westEastBottom0.1" vType="carCustom" speedFactor="1.04" vaporized=""/>
    <tripinfo id="westEastTop.2" depart="18.00" departLane="westJunction_1" departPos="5.10" departSpeed="12.38" departDelay="1.80" arrival="135.00" arrivalLane="junctionEast_0" arrivalPos="492.80" arrivalSpeed="13.50" duration="117.00" routeLength="994.90" waitingTime="0.00" waitingCount="0" stopTime="0.00" timeLoss="45.12" rerouteNo="0" devices="tripinfo_westEastTop.2 ssm_westEastTop.2" vType="carCustom" speedFactor="0.93" vaporized=""/>
    <tripinfo id="westEastBottom0.2" depart="48.00" departLane="westJunction_0" departPos="5.10" departSpeed="13.30" departDelay="0.13" arrival="137.00" arrivalLane="junctionEast_1" arrivalPos="492.80" arrivalSpeed="13.39" duration="89.00" routeLength="994.90" waitingTime="0.00" waitingCount="0" stopTime="0.00" timeLoss="16.76" rerouteNo="0" devices="tripinfo_westEastBottom0.2 ssm_westEastBottom0.2" vType="carCustom" speedFactor="0.98" vaporized=""/>
    <tripinfo id="southNorth.0" depart="52.00" departLane="southJunction_1" departPos="5.10" departSpeed="13.89" departDelay="0.73" arrival="139.00" arrivalLane="junctionNorth_0" arrivalPos="492.80" arrivalSpeed="13.41" duration="87.00" routeLength="995.01" waitingTime="1.00" waitingCount="1" stopTime="0.00" timeLoss="15.19" rerouteNo="0" devices="tripinfo_southNorth.0 ssm_southNorth.0" vType="carCustom" speedFactor="0.91" vaporized=""/>
    <tripinfo id="westEastTop.3" depart="20.00" departLane="westJunction_1" departPos="5.10" departSpeed="10.88" departDelay="3.50" arrival="149.00" arrivalLane="junctionEast_0" arrivalPos="492.80" arrivalSpeed="13.08" duration="129.00" routeLength="994.90" waitingTime="0.00" waitingCount="0" stopTime="0.00" timeLoss="57.28" rerouteNo="0" devices="tripinfo_westEastTop.3 ssm_westEastTop.3" vType="carCustom" speedFactor="0.96" vaporized=""/>
    <tripinfo id="westEastBottom0.3" depart="54.00" departLane="westJunction_0" departPos="5.10" departSpeed="12.55" departDelay="0.28" arrival="150.00" arrivalLane="junctionEast_0" arrivalPos="492.80" arrivalSpeed="13.02" duration="96.00" routeLength="994.90" waitingTime="0.00" waitingCount="0" stopTime="0.00" timeLoss="24.28" rerouteNo="0" devices="tripinfo_westEastBottom0.3 ssm_westEastBottom0.3" vType="carCustom" speedFactor="1.04" vaporized=""/>
    <tripinfo id="southNorth.1" depart="71.00" departLane="southJunction_1" departPos="5.10" departSpeed="12.70" departDelay="0.10" arrival="155.00" arrivalLane="junctionNorth_0" arrivalPos="492.80" arrivalSpeed="13.50" duration="84.00" routeLength="995.01" waitingTime="0.00" waitingCount="0" stopTime="0.00" timeLoss="12.07" rerouteNo="0" devices="tripinfo_southNorth.1 ssm_southNorth.1" vType="carCustom" speedFactor="0.81" vaporized=""/>
    <tripinfo id="westEastTop.4" depart="22.00" departLane="westJunction_1" departPos="5.10" departSpeed="9.38" departDelay="4.76" arrival="162.00" arrivalLane="junctionEast_0" arrivalPos="492.80" arrivalSpeed="13.62" duration="140.00" routeLength="994.90" waitingTime="0.00" waitingCount="0" stopTime="0.00" timeLoss="68.03" rerouteNo="0" devices="tripinfo_westEastTop.4 ssm_westEastTop.4" vType="carCustom" speedFactor="1.04" vaporized=""/>
    <tripinfo id="southEast.3" depart="66.00" departLane="southJunction_0" departPos="5.10" departSpeed="6.07" departDelay="0.21" arrival="163.00" arrivalLane="junctionEast_1" arrivalPos="492.80" arrivalSpeed="13.48" duration="97.00" routeLength="989.53" waitingTime="3.00" waitingCount="1" stopTime="0.00" timeLoss="24.29" rerouteNo="0" devices="tripinfo_southEast.3 ssm_southEast.3" vType="carCustom" speedFactor="0.92" vaporized=""/>
    <tripinfo id="southNorth.2" depart="73.00" departLane="southJunction_1" departPos="5.10" departSpeed="13.22" departDelay="1.86" arrival="172.00" arrivalLane="junctionNorth_0" arrivalPos="492.80" arrivalSpeed="13.28" duration="99.00" routeLength="995.01" waitingTime="3.00" waitingCount="1" stopTime="0.00" timeLoss="26.92" rerouteNo="0" devices="tripinfo_southNorth.2 ssm_southNorth.2" vType="carCustom" speedFactor="0.99" vaporized=""/>
    <tripinfo id="westEastTop.5" depart="24.00" departLane="westJunction_1" departPos="5.10" departSpeed="7.88" departDelay="4.98" arrival="175.00" arrivalLane="junctionEast_1" arrivalPos="492.80" arrivalSpeed="13.77" duration="151.00" routeLength="994.90" waitingTime="5.00" waitingCount="1" stopTime="0.00" timeLoss="78.82" rerouteNo="0" devices="tripinfo_westEastTop.5 ssm_westEastTop.5" vType="carCustom" speedFactor="1.04" vaporized=""/>
    <tripinfo id="westEastBottom0.4" depart="57.00" departLane="westJunction_0" departPos="5.10" departSpeed="10.29" departDelay="0.84" arrival="175.00" arrivalLane="junctionEast_0" arrivalPos="492.80" arrivalSpeed="13.62" duration="118.00" routeLength="994.90" waitingTime="3.00" waitingCount="1" stopTime="0.00" timeLoss="46.10" rerouteNo="0" devices="tripinfo_westEastBottom0.4 ssm_westEastBottom0.4" vType="carCustom" speedFactor="1.10" vaporized=""/>
    <tripinfo id="southEast.7" depart="119.00" departLane="southJunction_0" departPos="5.10" departSpeed="12.09" departDelay="0.55" arrival="185.00" arrivalLane="junctionEast_0" arrivalPos="492.80" arrivalSpeed="5.58" duration="66.00" routeLength="989.53" waitingTime="0.00" waitingCount="0" stopTime="0.00" timeLoss="29.87" rerouteNo="0" devices="tripinfo_southEast.7 ssm_southEast.7" vType="carCustom" speedFactor="1.12" vaporized="teleport"/>
    <tripinfo id="southNorth.3" depart="75.00" departLane="southJunction_1" departPos="5.10" departSpeed="11.72" departDelay="1.81" arrival="187.00" arrivalLane="junctionNorth_0" arrivalPos="492.80" arrivalSpeed="12.95" duration="112.00" routeLength="995.01" waitingTime="0.00" waitingCount="0" stopTime="0.00" timeLoss="39.82" rerouteNo="0" devices="tripinfo_southNorth.3 ssm_southNorth.3" vType="carCustom" speedFactor="1.02" vaporized=""/>
    <tripinfo id="westEastTop.6" depart="27.00" departLane="westJunction_1" departPos="5.10" departSpeed="5.63" departDelay="3.22" arrival="188.00" arrivalLane="junctionEast_1" arrivalPos="492.80" arrivalSpeed="13.65" duration="161.00" routeLength="994.90" waitingTime="0.00" waitingCount="0" stopTime="0.00" timeLoss="88.93" rerouteNo="0" devices="tripinfo_westEastTop.6 ssm_westEastTop.6" vType="carCustom" speedFactor="0.98" vaporized=""/>
    <tripinfo id="southEast.4" depart="83.00" departLane="southJunction_0" departPos="5.10" departSpeed="13.38" departDelay="0.20" arrival="188.00" arrivalLane="junctionEast_0" arrivalPos="492.80" arrivalSpeed="13.10" duration="105.00" routeLength="989.53" waitingTime="3.00" waitingCount="1" stopTime="0.00" timeLoss="32.55" rerouteNo="0" devices="tripinfo_southEast.4 ssm_southEast.4" vType="carCustom" speedFactor="1.13" vaporized=""/>
    <tripinfo id="westEastBottom0.5" depart="70.00" departLane="westJunction_0" departPos="5.10" departSpeed="6.23" departDelay="0.39" arrival="200.00" arrivalLane="junctionEast_0" arrivalPos="492.80" arrivalSpeed="13.11" duration="130.00" routeLength="994.90" waitingTime="0.00" waitingCount="0" stopTime="0.00" timeLoss="57.78" rerouteNo="0" devices="tripinfo_westEastBottom0.5 ssm_westEastBottom0.5" vType="carCustom" speedFactor="0.95" vaporized=""/>
    <tripinfo id="westEastTop.7" depart="35.00" departLane="westJunction_1" departPos="5.10" departSpeed="1.90" departDelay="0.37" arrival="201.00" arrivalLane="junctionEast_1" arrivalPos="492.80" arrivalSpeed="13.09" duration="166.00" routeLength="994.90" waitingTime="0.00" waitingCount="0" stopTime="0.00" timeLoss="93.61" rerouteNo="0" devices="tripinfo_westEastTop.7 ssm_westEastTop.7" vType="carCustom" speedFactor="1.05" vaporized=""/>
    <tripinfo id="southNorth.4" depart="77.00" departLane="southJunction_1" departPos="5.10" departSpeed="10.22" departDelay="1.13" arrival="202.00" arrivalLane="junctionNorth_0" arrivalPos="492.80" arrivalSpeed="12.90" duration="125.00" routeLength="995.01" waitingTime="0.00" waitingCount="0" stopTime="0.00" timeLoss="52.65" rerouteNo="0" devices="tripinfo_southNorth.4 ssm_southNorth.4" vType="carCustom" speedFactor="0.80" vaporized=""/>
    <tripinfo id="westEastBottom0.6" depart="73.00" departLane="westJunction_0" departPos="5.10" departSpeed="6.61" departDelay="0.09" arrival="212.00" arrivalLane="junctionEast_0" arrivalPos="492.80" arrivalSpeed="13.26" duration="139.00" routeLength="994.90" waitingTime="0.00" waitingCount="0" stopTime="0.00" timeLoss="66.51" rerouteNo="0" devices="tripinfo_westEastBottom0.6 ssm_westEastBottom0.6" vType="carCustom" speedFactor="0.95" vaporized=""/>
    <tripinfo id="southEast.5" depart="95.00" departLane="southJunction_0" departPos="5.10" departSpeed="12.67" departDelay="0.22" arrival="213.00" arrivalLane="junctionEast_1" arrivalPos="492.80" arrivalSpeed="13.10" duration="118.00" routeLength="989.53" waitingTime="5.00" waitingCount="1" stopTime="0.00" timeLoss="45.47" rerouteNo="0" devices="tripinfo_southEast.5 ssm_southEast.5" vType="carCustom" speedFactor="0.94" vaporized=""/>
    <tripinfo id="southNorth.5" depart="86.00" departLane="southJunction_1" departPos="5.10" departSpeed="3.55" departDelay="0.19" arrival="216.00" arrivalLane="junctionNorth_0" arrivalPos="492.80" arrivalSpeed="13.35" duration="130.00" routeLength="995.01" waitingTime="0.00" waitingCount="0" stopTime="0.00" timeLoss="58.09" rerouteNo="0" devices="tripinfo_southNorth.5 ssm_southNorth.5" vType="carCustom" speedFactor="0.90" vaporized=""/>
    <tripinfo id="westEastBottom0.8" depart="83.00" departLane="westJunction_0" departPos="5.10" departSpeed="3.63" departDelay="3.72" arrival="223.00" arrivalLane="junctionEast_0" arrivalPos="492.80" arrivalSpeed="13.74" duration="140.00" routeLength="994.90" waitingTime="0.00" waitingCount="0" stopTime="0.00" timeLoss="68.37" rerouteNo="0" devices="tripinfo_westEastBottom0.8 ssm_westEastBottom0.8" vType="carCustom" speedFactor="0.98" vaporized=""/>
    <tripinfo id="westEastTop.8" depart="39.00" departLane="westJunction_1" departPos="5.10" departSpeed="2.23" departDelay="4.16" arrival="224.00" arrivalLane="junctionEast_1" arrivalPos="492.80" arrivalSpeed="13.51" duration="185.00" routeLength="994.90" waitingTime="5.00" waitingCount="1" stopTime="0.00" timeLoss="113.22" rerouteNo="0" devices="tripinfo_westEastTop.8 ssm_westEastTop.8" vType="carCustom" speedFactor="1.05" vaporized=""/>
    <tripinfo id="southNorth.6" depart="94.00" departLane="southJunction_1" departPos="5.10" departSpeed="4.04" departDelay="0.25" arrival="230.00" arrivalLane="junctionNorth_0" arrivalPos="492.80" arrivalSpeed="13.40" duration="136.00" routeLength="995.01" waitingTime="0.00" waitingCount="0" stopTime="0.00" timeLoss="64.28" rerouteNo="0" devices="tripinfo_southNorth.6 ssm_southNorth.6" vType="carCustom" speedFactor="0.92" vaporized=""/>
    <tripinfo id="westEastBottom0.7" depart="79.00" departLane="westJunction_0" departPos="5.10" departSpeed="4.16" departDelay="0.48" arrival="235.00" arrivalLane="junctionEast_1" arrivalPos="492.80" arrivalSpeed="13.49" duration="156.00" routeLength="994.90" waitingTime="0.00" waitingCount="0" stopTime="0.00" timeLoss="84.33" rerouteNo="0" devices="tripinfo_westEastBottom0.7 ssm_westEastBottom0.7" vType="carCustom" speedFactor="0.87" vaporized=""/>
    <tripinfo id="southEast.6" depart="117.00" departLane="southJunction_0" departPos="5.10" departSpeed="10.54" departDelay="0.70" arrival="235.00" arrivalLane="junctionEast_0" arrivalPos="492.80" arrivalSpeed="13.78" duration="118.00" routeLength="989.53" waitingTime="0.00" waitingCount="0" stopTime="0.00" timeLoss="45.60" rerouteNo="0" devices="tripinfo_southEast.6 ssm_southEast.6" vType="carCustom" speedFactor="1.01" vaporized=""/>
    <tripinfo id="southNorth.7" depart="97.00" departLane="southJunction_1" departPos="5.10" departSpeed="4.37" departDelay="3.03" arrival="244.00" arrivalLane="junctionNorth_0" arrivalPos="492.80" arrivalSpeed="13.39" duration="147.00" routeLength="995.01" waitingTime="0.00" waitingCount="0" stopTime="0.00" timeLoss="74.87" rerouteNo="0" devices="tripinfo_southNorth.7 ssm_southNorth.7" vType="carCustom" speedFactor="0.99" vaporized=""/>
    <tripinfo id="westEastTop.9" depart="46.00" departLane="westJunction_1" departPos="5.10" departSpeed="2.02" departDelay="1.07" arrival="246.00" arrivalLane="junctionEast_1" arrivalPos="492.80" arrivalSpeed="13.55" duration="200.00" routeLength="994.90" waitingTime="0.00" waitingCount="0" stopTime="0.00" timeLoss="128.26" rerouteNo="0" devices="tripinfo_westEastTop.9 ssm_westEastTop.9" vType="carCustom" speedFactor="0.95" vaporized=""/>
    <tripinfo id="westEastBottom0.9" depart="88.00" departLane="westJunction_0" departPos="5.10" departSpeed="2.02" departDelay="6.54" arrival="247.00" arrivalLane="junctionEast_0" arrivalPos="492.80" arrivalSpeed="13.51" duration="159.00" routeLength="994.90" waitingTime="0.00" waitingCount="0" stopTime="0.00" timeLoss="86.42" rerouteNo="0" devices="tripinfo_westEastBottom0.9 ssm_westEastBottom0.9" vType="carCustom" speedFactor="1.06" vaporized=""/>
    <tripinfo id="westEastTop.10" depart="52.00" departLane="westJunction_1" departPos="5.10" departSpeed="1.86" departDelay="0.95" arrival="257.00" arrivalLane="junctionEast_1" arrivalPos="492.80" arrivalSpeed="13.49" duration="205.00" routeLength="994.90" waitingTime="1.00" waitingCount="1" stopTime="0.00" timeLoss="133.35" rerouteNo="0" devices="tripinfo_westEastTop.10 ssm_westEastTop.10" vType="carCustom" speedFactor="0.94" vaporized=""/>
    <tripinfo id="westEastBottom0.10" depart="94.00" departLane="westJunction_0" departPos="5.10" departSpeed="2.43" departDelay="11.62" arrival="258.00" arrivalLane="junctionEast_0" arrivalPos="492.80" arrivalSpeed="13.08" duration="164.00" routeLength="994.90" waitingTime="0.00" waitingCount="0" stopTime="0.00" timeLoss="91.62" rerouteNo="0" devices="tripinfo_westEastBottom0.10 ssm_westEastBottom0.10" vType="carCustom" speedFactor="1.04" vaporized=""/>
    <tripinfo id="southNorth.8" depart="101.00" departLane="southJunction_1" departPos="5.10" departSpeed="2.07" departDelay="6.38" arrival="258.00" arrivalLane="junctionNorth_0" arrivalPos="492.80" arrivalSpeed="12.86" duration="157.00" routeLength="995.01" waitingTime="1.00" waitingCount="1" stopTime="0.00" timeLoss="85.01" rerouteNo="0" devices="tripinfo_southNorth.8 ssm_southNorth.8" vType="carCustom" speedFactor="0.98" vaporized=""/>
    <tripinfo id="westEastTop.11" depart="60.00" departLane="westJunction_1" departPos="5.10" departSpeed="1.70" departDelay="2.43" arrival="268.00" arrivalLane="junctionEast_0" arrivalPos="492.80" arrivalSpeed="13.15" duration="208.00" routeLength="994.90" waitingTime="5.00" waitingCount="1" stopTime="0.00" timeLoss="136.04" rerouteNo="0" devices="tripinfo_westEastTop.11 ssm_westEastTop.11" vType="carCustom" speedFactor="1.10" vaporized=""/>
    <tripinfo id="westEastBottom0.11" depart="118.00" departLane="westJunction_0" departPos="5.10" departSpeed="3.83" departDelay="0.03" arrival="269.00" arrivalLane="junctionEast_1" arrivalPos="492.80" arrivalSpeed="13.06" duration="151.00" routeLength="994.90" waitingTime="0.00" waitingCount="0" stopTime="0.00" timeLoss="79.17" rerouteNo="0" devices="tripinfo_westEastBottom0.11 ssm_westEastBottom0.11" vType="carCustom" speedFactor="1.02" vaporized=""/>
    <tripinfo id="southNorth.9" depart="108.00" departLane="southJunction_1" departPos="5.10" departSpeed="2.42" departDelay="8.18" arrival="271.00" arrivalLane="junctionNorth_0" arrivalPos="492.80" arrivalSpeed="13.65" duration="163.00" routeLength="995.01" waitingTime="0.00" waitingCount="0" stopTime="0.00" timeLoss="91.02" rerouteNo="0" devices="tripinfo_southNorth.9 ssm_southNorth.9" vType="carCustom" speedFactor="0.85" vaporized=""/>
    <tripinfo id="westEastTop.12" depart="67.00" departLane="westJunction_1" departPos="5.10" departSpeed="1.92" departDelay="8.75" arrival="279.00" arrivalLane="junctionEast_1" arrivalPos="492.80" arrivalSpeed="13.64" duration="212.00" routeLength="994.90" waitingTime="0.00" waitingCount="0" stopTime="0.00" timeLoss="139.74" rerouteNo="0" devices="tripinfo_westEastTop.12 ssm_westEastTop.12" vType="carCustom" speedFactor="0.80" vaporized=""/>
    <tripinfo id="southEast.8" depart="159.00" departLane="southJunction_0" departPos="5.10" departSpeed="8.14" departDelay="0.96" arrival="279.00" arrivalLane="junctionEast_0" arrivalPos="492.80" arrivalSpeed="13.50" duration="120.00" routeLength="989.53" waitingTime="2.00" waitingCount="1" stopTime="0.00" timeLoss="47.85" rerouteNo="0" devices="tripinfo_southEast.8 ssm_southEast.8" vType="carCustom" speedFactor="1.05" vaporized=""/>
    <tripinfo id="southNorth.10" depart="116.00" departLane="southJunction_1" departPos="5.10" departSpeed="2.16" departDelay="0.22" arrival="284.00" arrivalLane="junctionNorth_0" arrivalPos="492.80" arrivalSpeed="12.94" duration="168.00" routeLength="995.01" waitingTime="0.00" waitingCount="0" stopTime="0.00" timeLoss="96.33" rerouteNo="0" devices="tripinfo_southNorth.10 ssm_southNorth.10" vType="carCustom" speedFactor="1.06" vaporized=""/>
    <tripinfo id="westEastTop.13" depart="75.00" departLane="westJunction_1" departPos="5.10" departSpeed="1.46" departDelay="3.50" arrival="289.00" arrivalLane="junctionEast_0" arrivalPos="492.80" arrivalSpeed="13.10" duration="214.00" routeLength="994.90" waitingTime="0.00" waitingCount="0" stopTime="0.00" timeLoss="142.31" rerouteNo="0" devices="tripinfo_westEastTop.13 ssm_westEastTop.13" vType="carCustom" speedFactor="0.92" vaporized=""/>
    <tripinfo id="westEastBottom0.12" depart="121.00" departLane="westJunction_0" departPos="5.10" departSpeed="5.00" departDelay="1.32" arrival="290.00" arrivalLane="junctionEast_0" arrivalPos="492.80" arrivalSpeed="13.64" duration="169.00" routeLength="994.90" waitingTime="0.00" waitingCount="0" stopTime="0.00" timeLoss="97.07" rerouteNo="0" devices="tripinfo_westEastBottom0.12 ssm_westEastBottom0.12" vType="carCustom" speedFactor="1.10" vaporized=""/>
    <tripinfo id="southNorth.11" depart="131.00" departLane="southJunction_1" departPos="5.10" departSpeed="1.99" departDelay="0.80" arrival="297.00" arrivalLane="junctionNorth_0" arrivalPos="492.80" arrivalSpeed="12.96" duration="166.00" routeLength="995.01" waitingTime="1.00" waitingCount="1" stopTime="0.00" timeLoss="94.36" rerouteNo="0" devices="tripinfo_southNorth.11 ssm_southNorth.11" vType="carCustom" speedFactor="0.98" vaporized=""/>
    <tripinfo id="westEastTop.14" depart="83.00" departLane="westJunction_1" departPos="5.10" departSpeed="1.43" departDelay="2.39" arrival="300.00" arrivalLane="junctionEast_0" arrivalPos="492.80" arrivalSpeed="13.06" duration="217.00" routeLength="994.90" waitingTime="0.00" waitingCount="0" stopTime="0.00" timeLoss="145.16" rerouteNo="0" devices="tripinfo_westEastTop.14 ssm_westEastTop.14" vType="carCustom" speedFactor="0.92" vaporized=""/>
    <tripinfo id="southEast.9" depart="165.00" departLane="southJunction_0" departPos="5.10" departSpeed="13.59" departDelay="0.40" arrival="300.00" arrivalLane="junctionEast_1" arrivalPos="492.80" arrivalSpeed="13.73" duration="135.00" routeLength="989.53" waitingTime="0.00" waitingCount="0" stopTime="0.00" timeLoss="63.06" rerouteNo="0" devices="tripinfo_southEast.9 ssm_southEast.9" vType="carCustom" speedFactor="1.01" vaporized=""/>
    <tripinfo id="southEast.14" depart="232.00" departLane="southJunction_0" departPos="5.10" departSpeed="8.48" departDelay="0.95" arrival="303.00" arrivalLane="junctionEast_0" arrivalPos="492.80" arrivalSpeed="2.50" duration="71.00" routeLength="989.53" waitingTime="3.00" waitingCount="1" stopTime="0.00" timeLoss="34.22" rerouteNo="0" devices="tripinfo_southEast.14 ssm_southEast.14" vType="carCustom" speedFactor="0.90" vaporized="teleport"/>
    <tripinfo id="westEastBottom0.13" depart="140.00" departLane="westJunction_0" departPos="5.10" departSpeed="4.18" departDelay="0.62" arrival="310.00" arrivalLane="junctionEast_1" arrivalPos="492.80" arrivalSpeed="12.86" duration="170.00" routeLength="994.90" waitingTime="0.00" waitingCount="0" stopTime="0.00" timeLoss="98.17" rerouteNo="0" devices="tripinfo_westEastBottom0.13 ssm_westEastBottom0.13" vType="carCustom" speedFactor="0.98" vaporized=""/>
    <tripinfo id="southNorth.12" depart="141.00" departLane="southJunction_1" departPos="5.10" departSpeed="3.86" departDelay="0.58" arrival="310.00" arrivalLane="junctionNorth_0" arrivalPos="492.80" arrivalSpeed="13.19" duration="169.00" routeLength="995.01" waitingTime="0.00" waitingCount="0" stopTime="0.00" timeLoss="97.08" rerouteNo="0" devices="tripinfo_southNorth.12 ssm_southNorth.12" vType="carCustom" speedFactor="1.02" vaporized=""/>
    <tripinfo id="southEast.10" depart="183.00" departLane="southJunction_0" departPos="5.10" departSpeed="9.75" departDelay="0.19" arrival="311.00" arrivalLane="junctionEast_0" arrivalPos="492.80" arrivalSpeed="13.73" duration="128.00" routeLength="989.53" waitingTime="0.00" waitingCount="0" stopTime="0.00" timeLoss="55.14" rerouteNo="0" devices="tripinfo_southEast.10 ssm_southEast.10" vType="carCustom" speedFactor="1.06" vaporized=""/>
    <tripinfo id="westEastTop.15" depart="91.00" departLane="westJunction_1" departPos="5.10" departSpeed="1.30" departDelay="9.55" arrival="320.00" arrivalLane="junctionEast_0" arrivalPos="492.80" arrivalSpeed="13.50" duration="229.00" routeLength="994.90" waitingTime="0.00" waitingCount="0" stopTime="0.00" timeLoss="157.32" rerouteNo="0" devices="tripinfo_westEastTop.15 ssm_westEastTop.15" vType="carCustom" speedFactor="1.12" vaporized=""/>
    <tripinfo id="southNorth.13" depart="161.00" departLane="southJunction_1" departPos="5.10" departSpeed="3.40" departDelay="0.60" arrival="325.00" arrivalLane="junctionNorth_0" arrivalPos="492.80" arrivalSpeed="13.47" duration="164.00" routeLength="995.01" waitingTime="15.00" waitingCount="1" stopTime="0.00" timeLoss="92.25" rerouteNo="0" devices="tripinfo_southNorth.13 ssm_southNorth.13" vType="carCustom" speedFactor="0.95" vaporized=""/>
    <tripinfo id="westEastBottom0.14" depart="143.00" departLane="westJunction_0" departPos="5.10" departSpeed="5.64" departDelay="0.35" arrival="326.00" arrivalLane="junctionEast_0" arrivalPos="492.80" arrivalSpeed="13.42" duration="183.00" routeLength="994.90" waitingTime="0.00" waitingCount="0" stopTime="0.00" timeLoss="111.19" rerouteNo="0" devices="tripinfo_westEastBottom0.14 ssm_westEastBottom0.14" vType="carCustom" speedFactor="0.86" vaporized=""/>
    <tripinfo id="westEastTop.16" depart="99.00" departLane="westJunction_1" departPos="5.10" departSpeed="1.34" departDelay="17.08" arrival="328.00" arrivalLane="junctionEast_1" arrivalPos="492.80" arrivalSpeed="13.36" duration="229.00" routeLength="994.90" waitingTime="2.00" waitingCount="1" stopTime="0.00" timeLoss="156.45" rerouteNo="0" devices="tripinfo_westEastTop.16 ssm_westEastTop.16" vType="carCustom" speedFactor="0.97" vaporized=""/>
    <tripinfo id="westEastBottom0.15" depart="158.00" departLane="westJunction_0" departPos="5.10" departSpeed="4.09" departDelay="0.97" arrival="336.00" arrivalLane="junctionEast_0" arrivalPos="492.80" arrivalSpeed="13.87" duration="178.00" routeLength="994.90" waitingTime="0.00" waitingCount="0" stopTime="0.00" timeLoss="105.86" rerouteNo="0" devices="tripinfo_westEastBottom0.15 ssm_westEastBottom0.15" vType="carCustom" speedFactor="0.96" vaporized=""/>
    <tripinfo id="southEast.11" depart="187.00" departLane="southJunction_0" departPos="5.10" departSpeed="10.62" departDelay="0.11" arrival="339.00" arrivalLane="junctionEast_0" arrivalPos="492.80" arrivalSpeed="12.88" duration="152.00" routeLength="989.53" waitingTime="4.00" waitingCount="1" stopTime="0.00" timeLoss="78.99" rerouteNo="0" devices="tripinfo_southEast.11 ssm_southEast.11" vType="carCustom" speedFactor="0.92" vaporized=""/>
    <tripinfo id="southEast.17" depart="265.00" departLane="southJunction_0" departPos="5.10" departSpeed="9.41" departDelay="1.04" arrival="342.00" arrivalLane="junctionEast_0" arrivalPos="492.80" arrivalSpeed="1.19" duration="77.00" routeLength="989.53" waitingTime="0.00" waitingCount="0" stopTime="0.00" timeLoss="40.35" rerouteNo="0" devices="tripinfo_southEast.17 ssm_southEast.17" vType="carCustom" speedFactor="1.02" vaporized="teleport"/>
    <tripinfo id="southNorth.14" depart="174.00" departLane="southJunction_1" departPos="5.10" departSpeed="4.69" departDelay="0.76" arrival="343.00" arrivalLane="junctionNorth_0" arrivalPos="492.80" arrivalSpeed="13.31" duration="169.00" routeLength="995.01" waitingTime="16.00" waitingCount="2" stopTime="0.00" timeLoss="96.49" rerouteNo="0" devices="tripinfo_southNorth.14 ssm_southNorth.14" vType="carCustom" speedFactor="0.95" vaporized=""/>
    <tripinfo id="westEastTop.17" depart="107.00" departLane="westJunction_1" departPos="5.10" departSpeed="1.43" departDelay="23.47" arrival="344.00" arrivalLane="junctionEast_0" arrivalPos="492.80" arrivalSpeed="13.01" duration="237.00" routeLength="994.90" waitingTime="0.00" waitingCount="0" stopTime="0.00" timeLoss="164.51" rerouteNo="0" devices="tripinfo_westEastTop.17 ssm_westEastTop.17" vType="carCustom" speedFactor="0.95" vaporized=""/>