<?xml version="1.0" encoding="UTF-8"?>

<!-- generated on 2025-04-29 10:33:53 by Eclipse SUMO sumo Version 1.20.0
<configuration xmlns:xsi="http://www.w3.org/2001/XMLSchema-instance" xsi:noNamespaceSchemaLocation="http://sumo.dlr.de/xsd/sumoConfiguration.xsd">

    <input>
        <net-file value="nets/2lane_unprotected_right/2lane_unprotected_right.net.xml"/>
        <route-files value="nets/2lane_unprotected_right/2lane_unprotected_right.rou.xml"/>
    </input>

    <output>
        <tripinfo-output value="traces/transs50f0.5_s50_f1_random/0268_tripinfo.xml"/>
        <collision-output value="traces/transs50f0.5_s50_f1_random/0268_collisions.xml"/>
        <statistic-output value="traces/transs50f0.5_s50_f1_random/0268_statistics.xml"/>
    </output>

    <processing>
        <collision.action value="teleport"/>
        <collision.check-junctions value="true"/>
        <time-to-teleport value="-1"/>
        <waiting-time-memory value="1000"/>
        <max-depart-delay value="-1"/>
        <default.speeddev value="0.1"/>
    </processing>

    <report>
        <no-warnings value="true"/>
    </report>

    <ssm_device>
        <device.ssm.probability value="1.0"/>
        <device.ssm.measures value="BR"/>
        <device.ssm.file value="/Users/finn/Code/CausalKnowledgeTransfer-4-SafeRL/traces/transs50f0.5_s50_f1_random/0268_ssm.xml"/>
    </ssm_device>

    <traci_server>
        <remote-port value="49331"/>
    </traci_server>

    <random_number>
        <random value="true"/>
    </random_number>

</configuration>
-->

<tripinfos xmlns:xsi="http://www.w3.org/2001/XMLSchema-instance" xsi:noNamespaceSchemaLocation="http://sumo.dlr.de/xsd/tripinfo_file.xsd">
    <tripinfo id="westEastBottom0.0" depart="2.00" departLane="westJunction_0" departPos="5.10" departSpeed="22.22" departDelay="0.36" arrival="49.00" arrivalLane="junctionEast_0" arrivalPos="492.80" arrivalSpeed="21.15" duration="47.00" routeLength="994.90" waitingTime="0.00" waitingCount="0" stopTime="0.00" timeLoss="1.56" rerouteNo="0" devices="tripinfo_westEastBottom0.0 ssm_westEastBottom0.0" vType="carCustom" speedFactor="1.12" vaporized=""/>
    <tripinfo id="westEastTop.0" depart="5.00" departLane="westJunction_1" departPos="5.10" departSpeed="22.22" departDelay="0.38" arrival="52.00" arrivalLane="junctionEast_1" arrivalPos="492.80" arrivalSpeed="21.86" duration="47.00" routeLength="994.90" waitingTime="0.00" waitingCount="0" stopTime="0.00" timeLoss="1.37" rerouteNo="0" devices="tripinfo_westEastTop.0 ssm_westEastTop.0" vType="carCustom" speedFactor="0.97" vaporized=""/>
    <tripinfo id="southEast.0" depart="5.00" departLane="southJunction_0" departPos="5.10" departSpeed="22.22" departDelay="0.06" arrival="56.00" arrivalLane="junctionEast_0" arrivalPos="492.80" arrivalSpeed="21.91" duration="51.00" routeLength="989.53" waitingTime="0.00" waitingCount="0" stopTime="0.00" timeLoss="6.41" rerouteNo="0" devices="tripinfo_southEast.0 ssm_southEast.0" vType="carCustom" speedFactor="0.98" vaporized=""/>
    <tripinfo id="southNorth.0" depart="5.00" departLane="southJunction_1" departPos="5.10" departSpeed="22.22" departDelay="0.71" arrival="56.00" arrivalLane="junctionNorth_0" arrivalPos="492.80" arrivalSpeed="21.48" duration="51.00" routeLength="995.01" waitingTime="0.00" waitingCount="0" stopTime="0.00" timeLoss="5.29" rerouteNo="0" devices="tripinfo_southNorth.0 ssm_southNorth.0" vType="carCustom" speedFactor="1.14" vaporized=""/>
    <tripinfo id="westEastBottom0.2" depart="6.00" departLane="westJunction_0" departPos="5.10" departSpeed="17.05" departDelay="1.38" arrival="61.00" arrivalLane="junctionEast_1" arrivalPos="492.80" arrivalSpeed="22.06" duration="55.00" routeLength="994.90" waitingTime="0.00" waitingCount="0" stopTime="0.00" timeLoss="9.63" rerouteNo="0" devices="tripinfo_westEastBottom0.2 ssm_westEastBottom0.2" vType="carCustom" speedFactor="1.05" vaporized=""/>
    <tripinfo id="westEastBottom0.1" depart="4.00" departLane="westJunction_0" departPos="5.10" departSpeed="21.37" departDelay="1.42" arrival="64.00" arrivalLane="junctionEast_0" arrivalPos="492.80" arrivalSpeed="20.94" duration="60.00" routeLength="994.90" waitingTime="0.00" waitingCount="0" stopTime="0.00" timeLoss="14.59" rerouteNo="0" devices="tripinfo_westEastBottom0.1 ssm_westEastBottom0.1" vType="carCustom" speedFactor="0.97" vaporized=""/>
    <tripinfo id="westEastBottom0.3" depart="8.00" departLane="westJunction_0" departPos="5.10" departSpeed="13.81" departDelay="0.21" arrival="69.00" arrivalLane="junctionEast_1" arrivalPos="492.80" arrivalSpeed="21.89" duration="61.00" routeLength="994.90" waitingTime="0.00" waitingCount="0" stopTime="0.00" timeLoss="15.52" rerouteNo="0" devices="tripinfo_westEastBottom0.3 ssm_westEastBottom0.3" vType="carCustom" speedFactor="1.07" vaporized=""/>
    <tripinfo id="southEast.1" depart="13.00" departLane="southJunction_0" departPos="5.10" departSpeed="21.59" departDelay="0.89" arrival="72.00" arrivalLane="junctionEast_0" arrivalPos="492.80" arrivalSpeed="22.02" duration="59.00" routeLength="989.53" waitingTime="0.00" waitingCount="0" stopTime="0.00" timeLoss="12.83" rerouteNo="0" devices="tripinfo_southEast.1 ssm_southEast.1" vType="carCustom" speedFactor="0.85" vaporized=""/>
    <tripinfo id="westEastTop.1" depart="13.00" departLane="westJunction_1" departPos="5.10" departSpeed="14.22" departDelay="0.15" arrival="76.00" arrivalLane="junctionEast_1" arrivalPos="492.80" arrivalSpeed="21.10" duration="63.00" routeLength="994.90" waitingTime="0.00" waitingCount="0" stopTime="0.00" timeLoss="18.01" rerouteNo="0" devices="tripinfo_westEastTop.1 ssm_westEastTop.1" vType="carCustom" speedFactor="1.04" vaporized=""/>
    <tripinfo id="southNorth.1" depart="25.00" departLane="southJunction_1" departPos="5.10" departSpeed="17.48" departDelay="0.36" arrival="80.00" arrivalLane="junctionNorth_0" arrivalPos="492.80" arrivalSpeed="21.29" duration="55.00" routeLength="995.01" waitingTime="0.00" waitingCount="0" stopTime="0.00" timeLoss="9.82" rerouteNo="0" devices="tripinfo_southNorth.1 ssm_southNorth.1" vType="carCustom" speedFactor="0.95" vaporized=""/>
    <tripinfo id="southEast.2" depart="16.00" departLane="southJunction_0" departPos="5.10" departSpeed="20.30" departDelay="0.68" arrival="82.00" arrivalLane="junctionEast_1" arrivalPos="492.80" arrivalSpeed="21.31" duration="66.00" routeLength="989.53" waitingTime="0.00" waitingCount="0" stopTime="0.00" timeLoss="20.58" rerouteNo="0" devices="tripinfo_southEast.2 ssm_southEast.2" vType="carCustom" speedFactor="0.84" vaporized=""/>
    <tripinfo id="southEast.3" depart="18.00" departLane="southJunction_0" departPos="5.10" departSpeed="16.18" departDelay="2.63" arrival="89.00" arrivalLane="junctionEast_0" arrivalPos="492.80" arrivalSpeed="21.73" duration="71.00" routeLength="989.53" waitingTime="0.00" waitingCount="0" stopTime="0.00" timeLoss="24.75" rerouteNo="0" devices="tripinfo_southEast.3 ssm_southEast.3" vType="carCustom" speedFactor="1.08" vaporized=""/>
    <tripinfo id="westEastTop.2" depart="21.00" departLane="westJunction_1" departPos="5.10" departSpeed="14.40" departDelay="0.56" arrival="89.00" arrivalLane="junctionEast_1" arrivalPos="492.80" arrivalSpeed="21.17" duration="68.00" routeLength="994.90" waitingTime="0.00" waitingCount="0" stopTime="0.00" timeLoss="22.71" rerouteNo="0" devices="tripinfo_westEastTop.2 ssm_westEastTop.2" vType="carCustom" speedFactor="0.98" vaporized=""/>
    <tripinfo id="southNorth.2" depart="34.00" departLane="southJunction_1" departPos="5.10" departSpeed="22.10" departDelay="0.77" arrival="95.00" arrivalLane="junctionNorth_0" arrivalPos="492.80" arrivalSpeed="21.75" duration="61.00" routeLength="995.01" waitingTime="1.00" waitingCount="1" stopTime="0.00" timeLoss="15.38" rerouteNo="0" devices="tripinfo_southNorth.2 ssm_southNorth.2" vType="carCustom" speedFactor="1.04" vaporized=""/>
    <tripinfo id="westEastBottom0.5" depart="28.00" departLane="westJunction_0" departPos="5.10" departSpeed="17.96" departDelay="1.18" arrival="96.00" arrivalLane="junctionEast_1" arrivalPos="492.80" arrivalSpeed="21.19" duration="68.00" routeLength="994.90" waitingTime="0.00" waitingCount="0" stopTime="0.00" timeLoss="22.40" rerouteNo="0" devices="tripinfo_westEastBottom0.5 ssm_westEastBottom0.5" vType="carCustom" speedFactor="1.10" vaporized=""/>
    <tripinfo id="southEast.4" depart="26.00" departLane="southJunction_0" departPos="5.10" departSpeed="11.49" departDelay="0.30" arrival="98.00" arrivalLane="junctionEast_0" arrivalPos="492.80" arrivalSpeed="22.02" duration="72.00" routeLength="989.53" waitingTime="0.00" waitingCount="0" stopTime="0.00" timeLoss="25.29" rerouteNo="0" devices="tripinfo_southEast.4 ssm_southEast.4" vType="carCustom" speedFactor="0.98" vaporized=""/>
    <tripinfo id="westEastBottom0.4" depart="26.00" departLane="westJunction_0" departPos="5.10" departSpeed="16.46" departDelay="0.75" arrival="103.00" arrivalLane="junctionEast_1" arrivalPos="492.80" arrivalSpeed="22.00" duration="77.00" routeLength="994.90" waitingTime="0.00" waitingCount="0" stopTime="0.00" timeLoss="31.33" rerouteNo="0" devices="tripinfo_westEastBottom0.4 ssm_westEastBottom0.4" vType="carCustom" speedFactor="1.00" vaporized=""/>
    <tripinfo id="southNorth.3" depart="39.00" departLane="southJunction_1" departPos="5.10" departSpeed="20.51" departDelay="0.09" arrival="104.00" arrivalLane="junctionNorth_0" arrivalPos="492.80" arrivalSpeed="21.03" duration="65.00" routeLength="995.01" waitingTime="0.00" waitingCount="0" stopTime="0.00" timeLoss="20.03" rerouteNo="0" devices="tripinfo_southNorth.3 ssm_southNorth.3" vType="carCustom" speedFactor="1.10" vaporized=""/>
    <tripinfo id="southEast.5" depart="29.00" departLane="southJunction_0" departPos="5.10" departSpeed="12.60" departDelay="0.83" arrival="105.00" arrivalLane="junctionEast_0" arrivalPos="492.80" arrivalSpeed="21.19" duration="76.00" routeLength="989.53" waitingTime="0.00" waitingCount="0" stopTime="0.00" timeLoss="29.76" rerouteNo="0" devices="tripinfo_southEast.5 ssm_southEast.5" vType="carCustom" speedFactor="1.05" vaporized=""/>
    <tripinfo id="westEastTop.3" depart="28.00" departLane="westJunction_1" departPos="5.10" departSpeed="15.84" departDelay="0.48" arrival="111.00" arrivalLane="junctionEast_1" arrivalPos="492.80" arrivalSpeed="21.99" duration="83.00" routeLength="994.90" waitingTime="3.00" waitingCount="1" stopTime="0.00" timeLoss="37.35" rerouteNo="0" devices="tripinfo_westEastTop.3 ssm_westEastTop.3" vType="carCustom" speedFactor="0.85" vaporized=""/>
    <tripinfo id="southEast.6" depart="42.00" departLane="southJunction_0" departPos="5.10" departSpeed="11.67" departDelay="0.69" arrival="112.00" arrivalLane="junctionEast_0" arrivalPos="492.80" arrivalSpeed="21.04" duration="70.00" routeLength="989.53" waitingTime="0.00" waitingCount="0" stopTime="0.00" timeLoss="23.76" rerouteNo="0" devices="tripinfo_southEast.6 ssm_southEast.6" vType="carCustom" speedFactor="1.00" vaporized=""/>
    <tripinfo id="westEastBottom0.8" depart="82.00" departLane="westJunction_0" departPos="5.10" departSpeed="15.21" departDelay="0.86" arrival="114.00" arrivalLane="junctionEast_0" arrivalPos="492.80" arrivalSpeed="9.21" duration="32.00" routeLength="994.90" waitingTime="0.00" waitingCount="0" stopTime="0.00" timeLoss="9.15" rerouteNo="0" devices="tripinfo_westEastBottom0.8 ssm_westEastBottom0.8" vType="carCustom" speedFactor="1.10" vaporized="teleport"/>
    <tripinfo id="westEastTop.4" depart="40.00" departLane="westJunction_1" departPos="5.10" departSpeed="10.83" departDelay="0.81" arrival="118.00" arrivalLane="junctionEast_1" arrivalPos="492.80" arrivalSpeed="21.95" duration="78.00" routeLength="994.90" waitingTime="0.00" waitingCount="0" stopTime="0.00" timeLoss="32.29" rerouteNo="0" devices="tripinfo_westEastTop.4 ssm_westEastTop.4" vType="carCustom" speedFactor="1.15" vaporized=""/>
    <tripinfo id="westEastBottom0.6" depart="57.00" departLane="westJunction_0" departPos="5.10" departSpeed="22.22" departDelay="0.75" arrival="119.00" arrivalLane="junctionEast_0" arrivalPos="492.80" arrivalSpeed="21.18" duration="62.00" routeLength="994.90" waitingTime="0.00" waitingCount="0" stopTime="0.00" timeLoss="16.47" rerouteNo="0" devices="tripinfo_westEastBottom0.6 ssm_westEastBottom0.6" vType="carCustom" speedFactor="1.00" vaporized=""/>
    <tripinfo id="westEastTop.5" depart="51.00" departLane="westJunction_1" departPos="5.10" departSpeed="14.73" departDelay="0.40" arrival="124.00" arrivalLane="junctionEast_1" arrivalPos="492.80" arrivalSpeed="21.23" duration="73.00" routeLength="994.90" waitingTime="0.00" waitingCount="0" stopTime="0.00" timeLoss="27.99" rerouteNo="0" devices="tripinfo_westEastTop.5 ssm_westEastTop.5" vType="carCustom" speedFactor="0.99" vaporized=""/>
    <tripinfo id="southEast.9" depart="50.00" departLane="southJunction_0" departPos="5.10" departSpeed="8.97" departDelay="2.13" arrival="125.00" arrivalLane="junctionEast_0" arrivalPos="492.80" arrivalSpeed="21.32" duration="75.00" routeLength="989.53" waitingTime="0.00" waitingCount="0" stopTime="0.00" timeLoss="29.06" rerouteNo="0" devices="tripinfo_southEast.9 ssm_southEast.9" vType="carCustom" speedFactor="1.01" vaporized=""/>
    <tripinfo id="southNorth.4" depart="57.00" departLane="southJunction_1" departPos="5.10" departSpeed="17.34" departDelay="0.18" arrival="125.00" arrivalLane="junctionNorth_0" arrivalPos="492.80" arrivalSpeed="20.96" duration="68.00" routeLength="995.01" waitingTime="6.00" waitingCount="1" stopTime="0.00" timeLoss="22.33" rerouteNo="0" devices="tripinfo_southNorth.4 ssm_southNorth.4" vType="carCustom" speedFactor="1.12" vaporized=""/>
    <tripinfo id="southEast.7" depart="44.00" departLane="southJunction_0" departPos="5.10" departSpeed="14.56" departDelay="1.70" arrival="131.00" arrivalLane="junctionEast_0" arrivalPos="492.80" arrivalSpeed="21.63" duration="87.00" routeLength="989.53" waitingTime="0.00" waitingCount="0" stopTime="0.00" timeLoss="41.59" rerouteNo="0" devices="tripinfo_southEast.7 ssm_southEast.7" vType="carCustom" speedFactor="1.13" vaporized=""/>
    <tripinfo id="westEastBottom0.7" depart="59.00" departLane="westJunction_0" departPos="5.10" departSpeed="20.52" departDelay="1.83" arrival="131.00" arrivalLane="junctionEast_1" arrivalPos="492.80" arrivalSpeed="21.83" duration="72.00" routeLength="994.90" waitingTime="0.00" waitingCount="0" stopTime="0.00" timeLoss="26.30" rerouteNo="0" devices="tripinfo_westEastBottom0.7 ssm_westEastBottom0.7" vType="carCustom" speedFactor="1.04" vaporized=""/>
    <tripinfo id="southEast.8" depart="48.00" departLane="southJunction_0" departPos="5.10" departSpeed="10.36" departDelay="0.36" arrival="137.00" arrivalLane="junctionEast_0" arrivalPos="492.80" arrivalSpeed="21.63" duration="89.00" routeLength="989.53" waitingTime="0.00" waitingCount="0" stopTime="0.00" timeLoss="43.57" rerouteNo="0" devices="tripinfo_southEast.8 ssm_southEast.8" vType="carCustom" speedFactor="1.01" vaporized=""/>
    <tripinfo id="westEastTop.6" depart="55.00" departLane="westJunction_1" departPos="5.10" departSpeed="17.45" departDelay="0.56" arrival="137.00" arrivalLane="junctionEast_1" arrivalPos="492.80" arrivalSpeed="21.94" duration="82.00" routeLength="994.90" waitingTime="2.00" waitingCount="1" stopTime="0.00" timeLoss="36.66" rerouteNo="0" devices="tripinfo_westEastTop.6 ssm_westEastTop.6" vType="carCustom" speedFactor="1.04" vaporized=""/>
    <tripinfo id="westEastBottom0.11" depart="98.00" departLane="westJunction_0" departPos="5.10" departSpeed="16.47" departDelay="2.69" arrival="140.00" arrivalLane="junctionEast_0" arrivalPos="492.80" arrivalSpeed="4.00" duration="42.00" routeLength="994.90" waitingTime="0.00" waitingCount="0" stopTime="0.00" timeLoss="19.32" rerouteNo="0" devices="tripinfo_westEastBottom0.11 ssm_westEastBottom0.11" vType="carCustom" speedFactor="1.00" vaporized="teleport"/>
    <tripinfo id="westEastTop.7" depart="63.00" departLane="westJunction_1" departPos="5.10" departSpeed="13.64" departDelay="0.18" arrival="143.00" arrivalLane="junctionEast_1" arrivalPos="492.80" arrivalSpeed="20.99" duration="80.00" routeLength="994.90" waitingTime="0.00" waitingCount="0" stopTime="0.00" timeLoss="34.83" rerouteNo="0" devices="tripinfo_westEastTop.7 ssm_westEastTop.7" vType="carCustom" speedFactor="1.08" vaporized=""/>
    <tripinfo id="southEast.12" depart="67.00" departLane="southJunction_0" departPos="5.10" departSpeed="10.30" departDelay="0.59" arrival="143.00" arrivalLane="junctionEast_0" arrivalPos="492.80" arrivalSpeed="22.03" duration="76.00" routeLength="989.53" waitingTime="0.00" waitingCount="0" stopTime="0.00" timeLoss="30.04" rerouteNo="0" devices="tripinfo_southEast.12 ssm_southEast.12" vType="carCustom" speedFactor="0.85" vaporized=""/>
    <tripinfo id="southNorth.5" depart="88.00" departLane="southJunction_1" departPos="5.10" departSpeed="20.35" departDelay="0.29" arrival="147.00" arrivalLane="junctionNorth_0" arrivalPos="492.80" arrivalSpeed="21.72" duration="59.00" routeLength="995.01" waitingTime="1.00" waitingCount="1" stopTime="0.00" timeLoss="13.88" rerouteNo="0" devices="tripinfo_southNorth.5 ssm_southNorth.5" vType="carCustom" speedFactor="0.94" vaporized=""/>
    <tripinfo id="southEast.10" depart="61.00" departLane="southJunction_0" departPos="5.10" departSpeed="10.81" departDelay="0.86" arrival="149.00" arrivalLane="junctionEast_0" arrivalPos="492.80" arrivalSpeed="21.47" duration="88.00" routeLength="989.53" waitingTime="0.00" waitingCount="0" stopTime="0.00" timeLoss="42.52" rerouteNo="0" devices="tripinfo_southEast.10 ssm_southEast.10" vType="carCustom" speedFactor="1.03" vaporized=""/>
    <tripinfo id="westEastTop.8" depart="76.00" departLane="westJunction_1" departPos="5.10" departSpeed="13.73" departDelay="0.35" arrival="149.00" arrivalLane="junctionEast_1" arrivalPos="492.80" arrivalSpeed="21.78" duration="73.00" routeLength="994.90" waitingTime="0.00" waitingCount="0" stopTime="0.00" timeLoss="27.84" rerouteNo="0" devices="tripinfo_westEastTop.8 ssm_westEastTop.8" vType="carCustom" speedFactor="0.94" vaporized=""/>
    <tripinfo id="southEast.11" depart="64.00" departLane="southJunction_0" departPos="5.10" departSpeed="15.11" departDelay="0.45" arrival="155.00" arrivalLane="junctionEast_0" arrivalPos="492.80" arrivalSpeed="21.75" duration="91.00" routeLength="989.53" waitingTime="0.00" waitingCount="0" stopTime="0.00" timeLoss="44.95" rerouteNo="0" devices="tripinfo_southEast.11 ssm_southEast.11" vType="carCustom" speedFactor="0.92" vaporized=""/>
    <tripinfo id="westEastTop.9" depart="79.00" departLane="westJunction_1" departPos="5.10" departSpeed="19.11" departDelay="0.41" arrival="155.00" arrivalLane="junctionEast_1" arrivalPos="492.80" arrivalSpeed="21.48" duration="76.00" routeLength="994.90" waitingTime="0.00" waitingCount="0" stopTime="0.00" timeLoss="30.84" rerouteNo="0" devices="tripinfo_westEastTop.9 ssm_westEastTop.9" vType="carCustom" speedFactor="1.05" vaporized=""/>
    <tripinfo id="southEast.22" depart="119.00" departLane="southJunction_0" departPos="5.10" departSpeed="10.58" departDelay="0.24" arrival="157.00" arrivalLane="junctionEast_0" arrivalPos="492.80" arrivalSpeed="3.17" duration="38.00" routeLength="989.53" waitingTime="0.00" waitingCount="0" stopTime="0.00" timeLoss="14.25" rerouteNo="0" devices="tripinfo_southEast.22 ssm_southEast.22" vType="carCustom" speedFactor="0.95" vaporized="teleport"/>
    <tripinfo id="southEast.15" depart="78.00" departLane="southJunction_0" departPos="5.10" departSpeed="10.63" departDelay="1.79" arrival="161.00" arrivalLane="junctionEast_0" arrivalPos="492.80" arrivalSpeed="21.18" duration="83.00" routeLength="989.53" waitingTime="0.00" waitingCount="0" stopTime="0.00" timeLoss="36.43" rerouteNo="0" devices="tripinfo_southEast.15 ssm_southEast.15" vType="carCustom" speedFactor="0.84" vaporized=""/>
    <tripinfo id="westEastBottom0.9" depart="84.00" departLane="westJunction_0" departPos="5.10" departSpeed="16.66" departDelay="1.90" arrival="161.00" arrivalLane="junctionEast_1" arrivalPos="492.80" arrivalSpeed="22.08" duration="77.00" routeLength="994.90" waitingTime="0.00" waitingCount="0" stopTime="0.00" timeLoss="31.92" rerouteNo="0" devices="tripinfo_westEastBottom0.9 ssm_westEastBottom0.9" vType="carCustom" speedFactor="1.02" vaporized=""/>
    <tripinfo id="southEast.13" depart="74.00" departLane="southJunction_0" departPos="5.10" departSpeed="11.57" departDelay="0.77" arrival="167.00" arrivalLane="junctionEast_0" arrivalPos="492.80" arrivalSpeed="21.99" duration="93.00" routeLength="989.53" waitingTime="0.00" waitingCount="0" stopTime="0.00" timeLoss="46.20" rerouteNo="0" devices="tripinfo_southEast.13 ssm_southEast.13" vType="carCustom" speedFactor="0.83" vaporized=""/>
    <tripinfo id="westEastTop.10" depart="84.00" departLane="westJunction_1" departPos="5.10" departSpeed="12.40" departDelay="0.93" arrival="167.00" arrivalLane="junctionEast_1" arrivalPos="492.80" arrivalSpeed="21.52" duration="83.00" routeLength="994.90" waitingTime="0.00" waitingCount="0" stopTime="0.00" timeLoss="37.90" rerouteNo="0" devices="tripinfo_westEastTop.10 ssm_westEastTop.10" vType="carCustom" speedFactor="0.99" vaporized=""/>
    <tripinfo id="westEastBottom0.15" depart="122.00" departLane="westJunction_0" departPos="5.10" departSpeed="14.70" departDelay="1.69" arrival="170.00" arrivalLane="junctionEast_0" arrivalPos="492.80" arrivalSpeed="4.05" duration="48.00" routeLength="994.90" waitingTime="0.00" waitingCount="0" stopTime="0.00" timeLoss="25.34" rerouteNo="0" devices="tripinfo_westEastBottom0.15 ssm_westEastBottom0.15" vType="carCustom" speedFactor="1.13" vaporized="teleport"/>
    <tripinfo id="westEastTop.11" depart="86.00" departLane="westJunction_1" departPos="5.10" departSpeed="12.07" departDelay="2.89" arrival="173.00" arrivalLane="junctionEast_1" arrivalPos="492.80" arrivalSpeed="21.63" duration="87.00" routeLength="994.90" waitingTime="0.00" waitingCount="0" stopTime="0.00" timeLoss="41.76" rerouteNo="0" devices="tripinfo_westEastTop.11 ssm_westEastTop.11" vType="carCustom" speedFactor="1.00" vaporized=""/>
    <tripinfo id="westEastBottom0.10" depart="96.00" departLane="westJunction_0" departPos="5.10" departSpeed="15.14" departDelay="0.96" arrival="173.00" arrivalLane="junctionEast_0" arrivalPos="492.80" arrivalSpeed="21.83" duration="77.00" routeLength="994.90" waitingTime="0.00" waitingCount="0" stopTime="0.00" timeLoss="31.32" rerouteNo="0" devices="tripinfo_westEastBottom0.10 ssm_westEastBottom0.10" vType="carCustom" speedFactor="0.92" vaporized=""/>
    <tripinfo id="southEast.14" depart="76.00" departLane="southJunction_0" departPos="5.10" departSpeed="14.96" departDelay="0.93" arrival="178.00" arrivalLane="junctionEast_0" arrivalPos="492.80" arrivalSpeed="21.22" duration="102.00" routeLength="989.53" waitingTime="0.00" waitingCount="0" stopTime="0.00" timeLoss="56.39" rerouteNo="0" devices="tripinfo_southEast.14 ssm_southEast.14" vType="carCustom" speedFactor="0.87" vaporized=""/>
    <tripinfo id="westEastTop.12" depart="88.00" departLane="westJunction_1" departPos="5.10" departSpeed="8.13" departDelay="2.61" arrival="179.00" arrivalLane="junctionEast_1" arrivalPos="492.80" arrivalSpeed="21.00" duration="91.00" routeLength="994.90" waitingTime="0.00" waitingCount="0" stopTime="0.00" timeLoss="45.69" rerouteNo="0" devices="tripinfo_westEastTop.12 ssm_westEastTop.12" vType="carCustom" speedFactor="0.86" vaporized=""/>
    <tripinfo id="southEast.16" depart="90.00" departLane="southJunction_0" departPos="5.10" departSpeed="11.41" departDelay="0.58" arrival="184.00" arrivalLane="junctionEast_0" arrivalPos="492.80" arrivalSpeed="21.42" duration="94.00" routeLength="989.53" waitingTime="0.00" waitingCount="0" stopTime="0.00" timeLoss="48.30" rerouteNo="0" devices="tripinfo_southEast.16 ssm_southEast.16" vType="carCustom" speedFactor="1.09" vaporized=""/>
    <tripinfo id="westEastTop.13" depart="91.00" departLane="westJunction_1" departPos="5.10" departSpeed="4.61" departDelay="2.91" arrival="185.00" arrivalLane="junctionEast_1" arrivalPos="492.80" arrivalSpeed="21.60" duration="94.00" routeLength="994.90" waitingTime="0.00" waitingCount="0" stopTime="0.00" timeLoss="48.58" rerouteNo="0" devices="tripinfo_westEastTop.13 ssm_westEastTop.13" vType="carCustom" speedFactor="1.14" vaporized=""/>
    <tripinfo id="southNorth.6" depart="103.00" departLane="southJunction_1" departPos="5.10" departSpeed="21.80" departDelay="0.67" arrival="185.00" arrivalLane="junctionNorth_0" arrivalPos="492.80" arrivalSpeed="22.05" duration="82.00" routeLength="995.01" waitingTime="24.00" waitingCount="1" stopTime="0.00" timeLoss="36.59" rerouteNo="0" devices="tripinfo_southNorth.6 ssm_southNorth.6" vType="carCustom" speedFactor="1.06" vaporized=""/>
    <tripinfo id="southEast.17" depart="101.00" departLane="southJunction_0" departPos="5.10" departSpeed="13.86" departDelay="0.41" arrival="189.00" arrivalLane="junctionEast_0" arrivalPos="492.80" arrivalSpeed="21.57" duration="88.00" routeLength="989.53" waitingTime="0.00" waitingCount="0" stopTime="0.00" timeLoss="42.23" rerouteNo="0" devices="tripinfo_southEast.17 ssm_southEast.17" vType="carCustom" speedFactor="1.15" vaporized=""/>
    <tripinfo id="westEastTop.14" depart="95.00" departLane="westJunction_1" departPos="5.10" departSpeed="4.50" departDelay="4.35" arrival="191.00" arrivalLane="junctionEast_1" arrivalPos="492.80" arrivalSpeed="21.34" duration="96.00" routeLength="994.90" waitingTime="0.00" waitingCount="0" stopTime="0.00" timeLoss="50.39" rerouteNo="0" devices="tripinfo_westEastTop.14 ssm_westEastTop.14" vType="carCustom" speedFactor="0.94" vaporized=""/>
    <tripinfo id="westEastBottom0.12" depart="100.00" departLane="westJunction_0" departPos="5.10" departSpeed="12.32" departDelay="2.71" arrival="195.00" arrivalLane="junctionEast_0" arrivalPos="492.80" arrivalSpeed="22.11" duration="95.00" routeLength="994.90" waitingTime="0.00" waitingCount="0" stopTime="0.00" timeLoss="49.58" rerouteNo="0" devices="tripinfo_westEastBottom0.12 ssm_westEastBottom0.12" vType="carCustom" speedFactor="0.89" vaporized=""/>
    <tripinfo id="westEastBottom0.13" depart="104.00" departLane="westJunction_0" departPos="5.10" departSpeed="7.77" departDelay="0.82" arrival="196.00" arrivalLane="junctionEast_1" arrivalPos="492.80" arrivalSpeed="20.93" duration="92.00" routeLength="994.90" waitingTime="0.00" waitingCount="0" stopTime="0.00" timeLoss="47.15" rerouteNo="0" devices="tripinfo_westEastBottom0.13 ssm_westEastBottom0.13" vType="carCustom" speedFactor="1.12" vaporized=""/>
    <tripinfo id="southEast.18" depart="103.00" departLane="southJunction_0" departPos="5.10" departSpeed="17.45" departDelay="1.83" arrival="200.00" arrivalLane="junctionEast_0" arrivalPos="492.80" arrivalSpeed="21.62" duration="97.00" routeLength="989.53" waitingTime="0.00" waitingCount="0" stopTime="0.00" timeLoss="51.37" rerouteNo="0" devices="tripinfo_southEast.18 ssm_southEast.18" vType="carCustom" speedFactor="0.97" vaporized=""/>
    <tripinfo id="westEastTop.15" depart="98.00" departLane="westJunction_1" departPos="5.10" departSpeed="4.28" departDelay="6.17" arrival="202.00" arrivalLane="junctionEast_1" arrivalPos="492.80" arrivalSpeed="21.68" duration="104.00" routeLength="994.90" waitingTime="2.00" waitingCount="1" stopTime="0.00" timeLoss="58.70" rerouteNo="0" devices="tripinfo_westEastTop.15 ssm_westEastTop.15" vType="carCustom" speedFactor="1.03" vaporized=""/>
    <tripinfo id="southNorth.7" depart="122.00" departLane="southJunction_1" departPos="5.10" departSpeed="12.98" departDelay="0.13" arrival="202.00" arrivalLane="junctionNorth_0" arrivalPos="492.80" arrivalSpeed="21.89" duration="80.00" routeLength="995.01" waitingTime="11.00" waitingCount="1" stopTime="0.00" timeLoss="34.90" rerouteNo="0" devices="tripinfo_southNorth.7 ssm_southNorth.7" vType="carCustom" speedFactor="1.03" vaporized=""/>
    <tripinfo id="southEast.19" depart="105.00" departLane="southJunction_0" departPos="5.10" departSpeed="13.12" departDelay="3.34" arrival="206.00" arrivalLane="junctionEast_0" arrivalPos="492.80" arrivalSpeed="21.64" duration="101.00" routeLength="989.53" waitingTime="0.00" waitingCount="0" stopTime="0.00" timeLoss="54.42" rerouteNo="0" devices="tripinfo_southEast.19 ssm_southEast.19" vType="carCustom" speedFactor="1.01" vaporized=""/>
    <tripinfo id="westEastBottom0.18" depart="173.00" departLane="westJunction_0" departPos="5.10" departSpeed="13.55" departDelay="0.24" arrival="207.00" arrivalLane="junctionEast_0" arrivalPos="492.80" arrivalSpeed="4.70" duration="34.00" routeLength="994.90" waitingTime="0.00" waitingCount="0" stopTime="0.00" timeLoss="11.19" rerouteNo="0" devices="tripinfo_westEastBottom0.18 ssm_westEastBottom0.18" vType="carCustom" speedFactor="1.17" vaporized="teleport"/>
    <tripinfo id="westEastTop.16" depart="102.00" departLane="westJunction_1" departPos="5.10" departSpeed="3.61" departDelay="6.68" arrival="208.00" arrivalLane="junctionEast_1" arrivalPos="492.80" arrivalSpeed="21.63" duration="106.00" routeLength="994.90" waitingTime="0.00" waitingCount="0" stopTime="0.00" timeLoss="60.62" rerouteNo="0" devices="tripinfo_westEastTop.16 ssm_westEastTop.16" vType="carCustom" speedFactor="1.15" vaporized=""/>
    <tripinfo id="westEastBottom0.14" depart="120.00" departLane="westJunction_0" departPos="5.10" departSpeed="10.10" departDelay="0.02" arrival="211.00" arrivalLane="junctionEast_0" arrivalPos="492.80" arrivalSpeed="21.94" duration="91.00" routeLength="994.90" waitingTime="1.00" waitingCount="1" stopTime="0.00" timeLoss="45.99" rerouteNo="0" devices="tripinfo_westEastBottom0.14 ssm_westEastBottom0.14" vType="carCustom" speedFactor="0.94" vaporized=""/>