<?xml version="1.0" encoding="UTF-8"?>

<!-- generated on 2025-04-29 10:39:13 by Eclipse SUMO sumo Version 1.20.0
<configuration xmlns:xsi="http://www.w3.org/2001/XMLSchema-instance" xsi:noNamespaceSchemaLocation="http://sumo.dlr.de/xsd/sumoConfiguration.xsd">

    <input>
        <net-file value="nets/2lane_unprotected_right/2lane_unprotected_right.net.xml"/>
        <route-files value="nets/2lane_unprotected_right/2lane_unprotected_right.rou.xml"/>
    </input>

    <output>
        <tripinfo-output value="traces/transs50f0.5_s50_f1_random/0273_tripinfo.xml"/>
        <collision-output value="traces/transs50f0.5_s50_f1_random/0273_collisions.xml"/>
        <statistic-output value="traces/transs50f0.5_s50_f1_random/0273_statistics.xml"/>
    </output>

    <processing>
        <collision.action value="teleport"/>
        <collision.check-junctions value="true"/>
        <time-to-teleport value="-1"/>
        <waiting-time-memory value="1000"/>
        <max-depart-delay value="-1"/>
        <default.speeddev value="0.1"/>
    </processing>

    <report>
        <no-warnings value="true"/>
    </report>

    <ssm_device>
        <device.ssm.probability value="1.0"/>
        <device.ssm.measures value="BR"/>
        <device.ssm.file value="/Users/finn/Code/CausalKnowledgeTransfer-4-SafeRL/traces/transs50f0.5_s50_f1_random/0273_ssm.xml"/>
    </ssm_device>

    <traci_server>
        <remote-port value="49394"/>
    </traci_server>

    <random_number>
        <random value="true"/>
    </random_number>

</configuration>
-->

<tripinfos xmlns:xsi="http://www.w3.org/2001/XMLSchema-instance" xsi:noNamespaceSchemaLocation="http://sumo.dlr.de/xsd/tripinfo_file.xsd">
    <tripinfo id="westEastTop.0" depart="4.00" departLane="westJunction_1" departPos="5.10" departSpeed="22.22" departDelay="0.33" arrival="51.00" arrivalLane="junctionEast_1" arrivalPos="492.80" arrivalSpeed="21.42" duration="47.00" routeLength="994.90" waitingTime="0.00" waitingCount="0" stopTime="0.00" timeLoss="1.37" rerouteNo="0" devices="tripinfo_westEastTop.0 ssm_westEastTop.0" vType="carCustom" speedFactor="1.00" vaporized=""/>
    <tripinfo id="westEastBottom0.0" depart="4.00" departLane="westJunction_0" departPos="5.10" departSpeed="22.22" departDelay="0.22" arrival="51.00" arrivalLane="junctionEast_0" arrivalPos="492.80" arrivalSpeed="21.57" duration="47.00" routeLength="994.90" waitingTime="0.00" waitingCount="0" stopTime="0.00" timeLoss="1.54" rerouteNo="0" devices="tripinfo_westEastBottom0.0 ssm_westEastBottom0.0" vType="carCustom" speedFactor="0.94" vaporized=""/>
    <tripinfo id="southNorth.0" depart="4.00" departLane="southJunction_1" departPos="5.10" departSpeed="22.22" departDelay="0.98" arrival="54.00" arrivalLane="junctionNorth_0" arrivalPos="492.80" arrivalSpeed="21.36" duration="50.00" routeLength="995.01" waitingTime="0.00" waitingCount="0" stopTime="0.00" timeLoss="4.91" rerouteNo="0" devices="tripinfo_southNorth.0 ssm_southNorth.0" vType="carCustom" speedFactor="0.98" vaporized=""/>
    <tripinfo id="southEast.0" depart="2.00" departLane="southJunction_0" departPos="5.10" departSpeed="22.22" departDelay="0.43" arrival="58.00" arrivalLane="junctionEast_0" arrivalPos="492.80" arrivalSpeed="21.98" duration="56.00" routeLength="989.53" waitingTime="0.00" waitingCount="0" stopTime="0.00" timeLoss="9.52" rerouteNo="0" devices="tripinfo_southEast.0 ssm_southEast.0" vType="carCustom" speedFactor="1.07" vaporized=""/>
    <tripinfo id="westEastTop.1" depart="6.00" departLane="westJunction_1" departPos="5.10" departSpeed="21.26" departDelay="0.95" arrival="59.00" arrivalLane="junctionEast_1" arrivalPos="492.80" arrivalSpeed="21.83" duration="53.00" routeLength="994.90" waitingTime="0.00" waitingCount="0" stopTime="0.00" timeLoss="8.16" rerouteNo="0" devices="tripinfo_westEastTop.1 ssm_westEastTop.1" vType="carCustom" speedFactor="1.00" vaporized=""/>
    <tripinfo id="westEastBottom0.1" depart="6.00" departLane="westJunction_0" departPos="5.10" departSpeed="21.26" departDelay="1.94" arrival="65.00" arrivalLane="junctionEast_0" arrivalPos="492.80" arrivalSpeed="21.02" duration="59.00" routeLength="994.90" waitingTime="0.00" waitingCount="0" stopTime="0.00" timeLoss="13.38" rerouteNo="0" devices="tripinfo_westEastBottom0.1 ssm_westEastBottom0.1" vType="carCustom" speedFactor="1.00" vaporized=""/>
    <tripinfo id="southNorth.1" depart="22.00" departLane="southJunction_1" departPos="5.10" departSpeed="21.27" departDelay="0.23" arrival="69.00" arrivalLane="junctionNorth_0" arrivalPos="492.80" arrivalSpeed="21.95" duration="47.00" routeLength="995.01" waitingTime="0.00" waitingCount="0" stopTime="0.00" timeLoss="1.33" rerouteNo="0" devices="tripinfo_southNorth.1 ssm_southNorth.1" vType="carCustom" speedFactor="1.07" vaporized=""/>
    <tripinfo id="westEastTop.2" depart="9.00" departLane="westJunction_1" departPos="5.10" departSpeed="14.96" departDelay="0.33" arrival="75.00" arrivalLane="junctionEast_0" arrivalPos="492.80" arrivalSpeed="21.61" duration="66.00" routeLength="994.90" waitingTime="5.00" waitingCount="1" stopTime="0.00" timeLoss="20.55" rerouteNo="0" devices="tripinfo_westEastTop.2 ssm_westEastTop.2" vType="carCustom" speedFactor="1.00" vaporized=""/>
    <tripinfo id="westEastBottom0.2" depart="21.00" departLane="westJunction_0" departPos="5.10" departSpeed="17.61" departDelay="0.36" arrival="79.00" arrivalLane="junctionEast_0" arrivalPos="492.80" arrivalSpeed="21.07" duration="58.00" routeLength="994.90" waitingTime="0.00" waitingCount="0" stopTime="0.00" timeLoss="12.90" rerouteNo="0" devices="tripinfo_westEastBottom0.2 ssm_westEastBottom0.2" vType="carCustom" speedFactor="0.81" vaporized=""/>
    <tripinfo id="westEastBottom0.3" depart="27.00" departLane="westJunction_0" departPos="5.10" departSpeed="18.00" departDelay="0.21" arrival="86.00" arrivalLane="junctionEast_0" arrivalPos="492.80" arrivalSpeed="21.38" duration="59.00" routeLength="994.90" waitingTime="0.00" waitingCount="0" stopTime="0.00" timeLoss="14.10" rerouteNo="0" devices="tripinfo_westEastBottom0.3 ssm_westEastBottom0.3" vType="carCustom" speedFactor="1.09" vaporized=""/>
    <tripinfo id="westEastBottom0.4" depart="34.00" departLane="westJunction_0" departPos="5.10" departSpeed="14.37" departDelay="0.21" arrival="93.00" arrivalLane="junctionEast_0" arrivalPos="492.80" arrivalSpeed="22.08" duration="59.00" routeLength="994.90" waitingTime="0.00" waitingCount="0" stopTime="0.00" timeLoss="13.84" rerouteNo="0" devices="tripinfo_westEastBottom0.4 ssm_westEastBottom0.4" vType="carCustom" speedFactor="0.92" vaporized=""/>
    <tripinfo id="westEastTop.3" depart="34.00" departLane="westJunction_1" departPos="5.10" departSpeed="15.53" departDelay="0.50" arrival="100.00" arrivalLane="junctionEast_0" arrivalPos="492.80" arrivalSpeed="21.43" duration="66.00" routeLength="994.90" waitingTime="0.00" waitingCount="0" stopTime="0.00" timeLoss="20.43" rerouteNo="0" devices="tripinfo_westEastTop.3 ssm_westEastTop.3" vType="carCustom" speedFactor="0.96" vaporized=""/>
    <tripinfo id="westEastBottom0.5" depart="46.00" departLane="westJunction_0" departPos="5.10" departSpeed="22.22" departDelay="0.30" arrival="106.00" arrivalLane="junctionEast_0" arrivalPos="492.80" arrivalSpeed="21.68" duration="60.00" routeLength="994.90" waitingTime="0.00" waitingCount="0" stopTime="0.00" timeLoss="14.79" rerouteNo="0" devices="tripinfo_westEastBottom0.5 ssm_westEastBottom0.5" vType="carCustom" speedFactor="0.90" vaporized=""/>
    <tripinfo id="westEastBottom0.6" depart="53.00" departLane="westJunction_0" departPos="5.10" departSpeed="22.22" departDelay="0.84" arrival="112.00" arrivalLane="junctionEast_1" arrivalPos="492.80" arrivalSpeed="22.04" duration="59.00" routeLength="994.90" waitingTime="0.00" waitingCount="0" stopTime="0.00" timeLoss="14.12" rerouteNo="0" devices="tripinfo_westEastBottom0.6 ssm_westEastBottom0.6" vType="carCustom" speedFactor="0.91" vaporized=""/>
    <tripinfo id="southEast.1" depart="56.00" departLane="southJunction_0" departPos="5.10" departSpeed="22.22" departDelay="0.94" arrival="112.00" arrivalLane="junctionEast_0" arrivalPos="492.80" arrivalSpeed="21.93" duration="56.00" routeLength="989.53" waitingTime="0.00" waitingCount="0" stopTime="0.00" timeLoss="10.18" rerouteNo="0" devices="tripinfo_southEast.1 ssm_southEast.1" vType="carCustom" speedFactor="1.07" vaporized=""/>
    <tripinfo id="westEastTop.4" depart="51.00" departLane="westJunction_1" departPos="5.10" departSpeed="16.06" departDelay="0.07" arrival="120.00" arrivalLane="junctionEast_0" arrivalPos="492.80" arrivalSpeed="22.00" duration="69.00" routeLength="994.90" waitingTime="0.00" waitingCount="0" stopTime="0.00" timeLoss="23.29" rerouteNo="0" devices="tripinfo_westEastTop.4 ssm_westEastTop.4" vType="carCustom" speedFactor="1.08" vaporized=""/>
    <tripinfo id="westEastBottom0.7" depart="66.00" departLane="westJunction_0" departPos="5.10" departSpeed="22.22" departDelay="0.33" arrival="122.00" arrivalLane="junctionEast_0" arrivalPos="492.80" arrivalSpeed="19.19" duration="56.00" routeLength="994.90" waitingTime="0.00" waitingCount="0" stopTime="0.00" timeLoss="10.53" rerouteNo="0" devices="tripinfo_westEastBottom0.7 ssm_westEastBottom0.7" vType="carCustom" speedFactor="0.94" vaporized=""/>
    <tripinfo id="westEastTop.5" depart="54.00" departLane="westJunction_1" departPos="5.10" departSpeed="13.97" departDelay="0.66" arrival="126.00" arrivalLane="junctionEast_1" arrivalPos="492.80" arrivalSpeed="21.35" duration="72.00" routeLength="994.90" waitingTime="0.00" waitingCount="0" stopTime="0.00" timeLoss="26.87" rerouteNo="0" devices="tripinfo_westEastTop.5 ssm_westEastTop.5" vType="carCustom" speedFactor="0.94" vaporized=""/>
    <tripinfo id="southNorth.2" depart="69.00" departLane="southJunction_1" departPos="5.10" departSpeed="22.22" departDelay="0.85" arrival="126.00" arrivalLane="junctionNorth_0" arrivalPos="492.80" arrivalSpeed="21.98" duration="57.00" routeLength="995.01" waitingTime="1.00" waitingCount="1" stopTime="0.00" timeLoss="11.96" rerouteNo="0" devices="tripinfo_southNorth.2 ssm_southNorth.2" vType="carCustom" speedFactor="1.10" vaporized=""/>
    <tripinfo id="southEast.2" depart="64.00" departLane="southJunction_0" departPos="5.10" departSpeed="22.15" departDelay="0.30" arrival="128.00" arrivalLane="junctionEast_0" arrivalPos="492.80" arrivalSpeed="21.04" duration="64.00" routeLength="989.53" waitingTime="0.00" waitingCount="0" stopTime="0.00" timeLoss="17.63" rerouteNo="0" devices="tripinfo_southEast.2 ssm_southEast.2" vType="carCustom" speedFactor="0.89" vaporized=""/>
    <tripinfo id="westEastTop.6" depart="56.00" departLane="westJunction_1" departPos="5.10" departSpeed="10.53" departDelay="1.49" arrival="133.00" arrivalLane="junctionEast_1" arrivalPos="492.80" arrivalSpeed="21.95" duration="77.00" routeLength="994.90" waitingTime="0.00" waitingCount="0" stopTime="0.00" timeLoss="31.69" rerouteNo="0" devices="tripinfo_westEastTop.6 ssm_westEastTop.6" vType="carCustom" speedFactor="0.97" vaporized=""/>
    <tripinfo id="westEastBottom0.8" depart="77.00" departLane="westJunction_0" departPos="5.10" departSpeed="16.64" departDelay="0.58" arrival="135.00" arrivalLane="junctionEast_0" arrivalPos="492.80" arrivalSpeed="21.61" duration="58.00" routeLength="994.90" waitingTime="0.00" waitingCount="0" stopTime="0.00" timeLoss="12.38" rerouteNo="0" devices="tripinfo_westEastBottom0.8 ssm_westEastBottom0.8" vType="carCustom" speedFactor="1.17" vaporized=""/>
    <tripinfo id="westEastTop.7" depart="61.00" departLane="westJunction_1" departPos="5.10" departSpeed="8.77" departDelay="0.20" arrival="140.00" arrivalLane="junctionEast_1" arrivalPos="492.80" arrivalSpeed="22.16" duration="79.00" routeLength="994.90" waitingTime="0.00" waitingCount="0" stopTime="0.00" timeLoss="33.24" rerouteNo="0" devices="tripinfo_westEastTop.7 ssm_westEastTop.7" vType="carCustom" speedFactor="1.16" vaporized=""/>
    <tripinfo id="southEast.3" depart="85.00" departLane="southJunction_0" departPos="5.10" departSpeed="14.68" departDelay="0.78" arrival="146.00" arrivalLane="junctionEast_1" arrivalPos="492.80" arrivalSpeed="21.09" duration="61.00" routeLength="989.53" waitingTime="0.00" waitingCount="0" stopTime="0.00" timeLoss="15.11" rerouteNo="0" devices="tripinfo_southEast.3 ssm_southEast.3" vType="carCustom" speedFactor="1.03" vaporized=""/>
    <tripinfo id="southNorth.3" depart="90.00" departLane="southJunction_1" departPos="5.10" departSpeed="15.62" departDelay="0.01" arrival="146.00" arrivalLane="junctionNorth_0" arrivalPos="492.80" arrivalSpeed="21.38" duration="56.00" routeLength="995.01" waitingTime="0.00" waitingCount="0" stopTime="0.00" timeLoss="11.16" rerouteNo="0" devices="tripinfo_southNorth.3 ssm_southNorth.3" vType="carCustom" speedFactor="1.03" vaporized=""/>
    <tripinfo id="westEastTop.8" depart="69.00" departLane="westJunction_1" departPos="5.10" departSpeed="8.17" departDelay="0.36" arrival="148.00" arrivalLane="junctionEast_0" arrivalPos="492.80" arrivalSpeed="22.11" duration="79.00" routeLength="994.90" waitingTime="0.00" waitingCount="0" stopTime="0.00" timeLoss="34.07" rerouteNo="0" devices="tripinfo_westEastTop.8 ssm_westEastTop.8" vType="carCustom" speedFactor="0.98" vaporized=""/>
    <tripinfo id="southEast.4" depart="90.00" departLane="southJunction_0" departPos="5.10" departSpeed="21.44" departDelay="0.80" arrival="153.00" arrivalLane="junctionEast_1" arrivalPos="492.80" arrivalSpeed="22.13" duration="63.00" routeLength="989.53" waitingTime="0.00" waitingCount="0" stopTime="0.00" timeLoss="16.69" rerouteNo="0" devices="tripinfo_southEast.4 ssm_southEast.4" vType="carCustom" speedFactor="0.81" vaporized=""/>
    <tripinfo id="southNorth.4" depart="101.00" departLane="southJunction_1" departPos="5.10" departSpeed="21.02" departDelay="0.88" arrival="155.00" arrivalLane="junctionNorth_0" arrivalPos="492.80" arrivalSpeed="21.01" duration="54.00" routeLength="995.01" waitingTime="0.00" waitingCount="0" stopTime="0.00" timeLoss="9.02" rerouteNo="0" devices="tripinfo_southNorth.4 ssm_southNorth.4" vType="carCustom" speedFactor="1.00" vaporized=""/>
    <tripinfo id="westEastBottom0.9" depart="90.00" departLane="westJunction_0" departPos="5.10" departSpeed="16.58" departDelay="0.27" arrival="157.00" arrivalLane="junctionEast_0" arrivalPos="492.80" arrivalSpeed="21.58" duration="67.00" routeLength="994.90" waitingTime="3.00" waitingCount="1" stopTime="0.00" timeLoss="21.11" rerouteNo="0" devices="tripinfo_westEastBottom0.9 ssm_westEastBottom0.9" vType="carCustom" speedFactor="0.82" vaporized=""/>
    <tripinfo id="westEastTop.9" depart="72.00" departLane="westJunction_1" departPos="5.10" departSpeed="10.40" departDelay="0.25" arrival="159.00" arrivalLane="junctionEast_1" arrivalPos="492.80" arrivalSpeed="22.16" duration="87.00" routeLength="994.90" waitingTime="0.00" waitingCount="0" stopTime="0.00" timeLoss="42.20" rerouteNo="0" devices="tripinfo_westEastTop.9 ssm_westEastTop.9" vType="carCustom" speedFactor="1.04" vaporized=""/>
    <tripinfo id="southEast.5" depart="97.00" departLane="southJunction_0" departPos="5.10" departSpeed="17.58" departDelay="0.54" arrival="163.00" arrivalLane="junctionEast_0" arrivalPos="492.80" arrivalSpeed="21.33" duration="66.00" routeLength="989.53" waitingTime="0.00" waitingCount="0" stopTime="0.00" timeLoss="20.73" rerouteNo="0" devices="tripinfo_southEast.5 ssm_southEast.5" vType="carCustom" speedFactor="1.19" vaporized=""/>
    <tripinfo id="westEastTop.10" depart="74.00" departLane="westJunction_1" departPos="5.10" departSpeed="7.88" departDelay="1.57" arrival="166.00" arrivalLane="junctionEast_1" arrivalPos="492.80" arrivalSpeed="21.79" duration="92.00" routeLength="994.90" waitingTime="2.00" waitingCount="1" stopTime="0.00" timeLoss="46.66" rerouteNo="0" devices="tripinfo_westEastTop.10 ssm_westEastTop.10" vType="carCustom" speedFactor="1.27" vaporized=""/>
    <tripinfo id="westEastBottom0.10" depart="95.00" departLane="westJunction_0" departPos="5.10" departSpeed="16.48" departDelay="0.45" arrival="170.00" arrivalLane="junctionEast_0" arrivalPos="492.80" arrivalSpeed="21.13" duration="75.00" routeLength="994.90" waitingTime="1.00" waitingCount="1" stopTime="0.00" timeLoss="29.35" rerouteNo="0" devices="tripinfo_westEastBottom0.10 ssm_westEastBottom0.10" vType="carCustom" speedFactor="0.81" vaporized=""/>
    <tripinfo id="westEastTop.11" depart="77.00" departLane="westJunction_1" departPos="5.10" departSpeed="5.45" departDelay="2.51" arrival="172.00" arrivalLane="junctionEast_1" arrivalPos="492.80" arrivalSpeed="22.09" duration="95.00" routeLength="994.90" waitingTime="0.00" waitingCount="0" stopTime="0.00" timeLoss="49.98" rerouteNo="0" devices="tripinfo_westEastTop.11 ssm_westEastTop.11" vType="carCustom" speedFactor="0.97" vaporized=""/>
    <tripinfo id="westEastBottom0.11" depart="98.00" departLane="westJunction_0" departPos="5.10" departSpeed="13.95" departDelay="0.50" arrival="176.00" arrivalLane="junctionEast_0" arrivalPos="492.80" arrivalSpeed="22.06" duration="78.00" routeLength="994.90" waitingTime="0.00" waitingCount="0" stopTime="0.00" timeLoss="32.51" rerouteNo="0" devices="tripinfo_westEastBottom0.11 ssm_westEastBottom0.11" vType="carCustom" speedFactor="1.05" vaporized=""/>
    <tripinfo id="westEastTop.12" depart="81.00" departLane="westJunction_1" departPos="5.10" departSpeed="5.66" departDelay="0.09" arrival="178.00" arrivalLane="junctionEast_1" arrivalPos="492.80" arrivalSpeed="21.32" duration="97.00" routeLength="994.90" waitingTime="0.00" waitingCount="0" stopTime="0.00" timeLoss="52.06" rerouteNo="0" devices="tripinfo_westEastTop.12 ssm_westEastTop.12" vType="carCustom" speedFactor="1.16" vaporized=""/>
    <tripinfo id="westEastBottom0.12" depart="102.00" departLane="westJunction_0" departPos="5.10" departSpeed="11.01" departDelay="0.63" arrival="182.00" arrivalLane="junctionEast_0" arrivalPos="492.80" arrivalSpeed="21.12" duration="80.00" routeLength="994.90" waitingTime="0.00" waitingCount="0" stopTime="0.00" timeLoss="34.59" rerouteNo="0" devices="tripinfo_westEastBottom0.12 ssm_westEastBottom0.12" vType="carCustom" speedFactor="1.02" vaporized=""/>
    <tripinfo id="westEastTop.13" depart="96.00" departLane="westJunction_1" departPos="5.10" departSpeed="7.08" departDelay="0.49" arrival="184.00" arrivalLane="junctionEast_1" arrivalPos="492.80" arrivalSpeed="21.70" duration="88.00" routeLength="994.90" waitingTime="0.00" waitingCount="0" stopTime="0.00" timeLoss="43.00" rerouteNo="0" devices="tripinfo_westEastTop.13 ssm_westEastTop.13" vType="carCustom" speedFactor="0.96" vaporized=""/>
    <tripinfo id="westEastBottom0.14" depart="152.00" departLane="westJunction_0" departPos="5.10" departSpeed="15.32" departDelay="0.67" arrival="185.00" arrivalLane="junctionEast_0" arrivalPos="492.80" arrivalSpeed="8.93" duration="33.00" routeLength="994.90" waitingTime="0.00" waitingCount="0" stopTime="0.00" timeLoss="10.15" rerouteNo="0" devices="tripinfo_westEastBottom0.14 ssm_westEastBottom0.14" vType="carCustom" speedFactor="1.04" vaporized="teleport"/>
    <tripinfo id="southEast.6" depart="102.00" departLane="southJunction_0" departPos="5.10" departSpeed="16.65" departDelay="0.57" arrival="188.00" arrivalLane="junctionEast_0" arrivalPos="492.80" arrivalSpeed="21.23" duration="86.00" routeLength="989.53" waitingTime="6.00" waitingCount="1" stopTime="0.00" timeLoss="39.95" rerouteNo="0" devices="tripinfo_southEast.6 ssm_southEast.6" vType="carCustom" speedFactor="0.99" vaporized=""/>
    <tripinfo id="southNorth.5" depart="127.00" departLane="southJunction_1" departPos="5.10" departSpeed="8.71" departDelay="0.74" arrival="188.00" arrivalLane="junctionNorth_0" arrivalPos="492.80" arrivalSpeed="21.23" duration="61.00" routeLength="995.01" waitingTime="3.00" waitingCount="1" stopTime="0.00" timeLoss="15.52" rerouteNo="0" devices="tripinfo_southNorth.5 ssm_southNorth.5" vType="carCustom" speedFactor="1.17" vaporized=""/>
    <tripinfo id="westEastTop.14" depart="98.00" departLane="westJunction_1" departPos="5.10" departSpeed="11.39" departDelay="0.15" arrival="190.00" arrivalLane="junctionEast_1" arrivalPos="492.80" arrivalSpeed="21.21" duration="92.00" routeLength="994.90" waitingTime="0.00" waitingCount="0" stopTime="0.00" timeLoss="46.87" rerouteNo="0" devices="tripinfo_westEastTop.14 ssm_westEastTop.14" vType="carCustom" speedFactor="0.86" vaporized=""/>
    <tripinfo id="southEast.7" depart="106.00" departLane="southJunction_0" departPos="5.10" departSpeed="15.01" departDelay="0.27" arrival="194.00" arrivalLane="junctionEast_0" arrivalPos="492.80" arrivalSpeed="21.70" duration="88.00" routeLength="989.53" waitingTime="0.00" waitingCount="0" stopTime="0.00" timeLoss="41.56" rerouteNo="0" devices="tripinfo_southEast.7 ssm_southEast.7" vType="carCustom" speedFactor="0.91" vaporized=""/>
    <tripinfo id="westEastTop.15" depart="103.00" departLane="westJunction_1" departPos="5.10" departSpeed="7.47" departDelay="0.07" arrival="196.00" arrivalLane="junctionEast_1" arrivalPos="492.80" arrivalSpeed="21.98" duration="93.00" routeLength="994.90" waitingTime="0.00" waitingCount="0" stopTime="0.00" timeLoss="47.61" rerouteNo="0" devices="tripinfo_westEastTop.15 ssm_westEastTop.15" vType="carCustom" speedFactor="1.18" vaporized=""/>
    <tripinfo id="southEast.14" depart="146.00" departLane="southJunction_0" departPos="5.10" departSpeed="10.58" departDelay="0.14" arrival="196.00" arrivalLane="junctionEast_0" arrivalPos="492.80" arrivalSpeed="6.75" duration="50.00" routeLength="989.53" waitingTime="0.00" waitingCount="0" stopTime="0.00" timeLoss="26.76" rerouteNo="0" devices="tripinfo_southEast.14 ssm_southEast.14" vType="carCustom" speedFactor="1.08" vaporized="teleport"/>
    <tripinfo id="southEast.8" depart="111.00" departLane="southJunction_0" departPos="5.10" departSpeed="12.16" departDelay="0.13" arrival="199.00" arrivalLane="junctionEast_0" arrivalPos="492.80" arrivalSpeed="22.14" duration="88.00" routeLength="989.53" waitingTime="0.00" waitingCount="0" stopTime="0.00" timeLoss="41.68" rerouteNo="0" devices="tripinfo_southEast.8 ssm_southEast.8" vType="carCustom" speedFactor="0.80" vaporized=""/>
    <tripinfo id="westEastTop.16" depart="111.00" departLane="westJunction_1" departPos="5.10" departSpeed="8.75" departDelay="0.13" arrival="202.00" arrivalLane="junctionEast_1" arrivalPos="492.80" arrivalSpeed="21.87" duration="91.00" routeLength="994.90" waitingTime="0.00" waitingCount="0" stopTime="0.00" timeLoss="45.57" rerouteNo="0" devices="tripinfo_westEastTop.16 ssm_westEastTop.16" vType="carCustom" speedFactor="0.78" vaporized=""/>
    <tripinfo id="southEast.9" depart="115.00" departLane="southJunction_0" departPos="5.10" departSpeed="11.37" departDelay="0.14" arrival="205.00" arrivalLane="junctionEast_0" arrivalPos="492.80" arrivalSpeed="21.70" duration="90.00" routeLength="989.53" waitingTime="0.00" waitingCount="0" stopTime="0.00" timeLoss="44.00" rerouteNo="0" devices="tripinfo_southEast.9 ssm_southEast.9" vType="carCustom" speedFactor="1.10" vaporized=""/>
    <tripinfo id="westEastTop.17" depart="121.00" departLane="westJunction_1" departPos="5.10" departSpeed="9.75" departDelay="0.90" arrival="208.00" arrivalLane="junctionEast_1" arrivalPos="492.80" arrivalSpeed="21.07" duration="87.00" routeLength="994.90" waitingTime="0.00" waitingCount="0" stopTime="0.00" timeLoss="41.36" rerouteNo="0" devices="tripinfo_westEastTop.17 ssm_westEastTop.17" vType="carCustom" speedFactor="1.20" vaporized=""/>
    <tripinfo id="westEastBottom0.13" depart="128.00" departLane="westJunction_0" departPos="5.10" departSpeed="12.93" departDelay="0.42" arrival="210.00" arrivalLane="junctionEast_0" arrivalPos="492.80" arrivalSpeed="21.33" duration="82.00" routeLength="994.90" waitingTime="5.00" waitingCount="1" stopTime="0.00" timeLoss="36.89" rerouteNo="0" devices="tripinfo_westEastBottom0.13 ssm_westEastBottom0.13" vType="carCustom" speedFactor="0.92" vaporized=""/>
    <tripinfo id="southNorth.6" depart="139.00" departLane="southJunction_1" departPos="5.10" departSpeed="21.08" departDelay="0.74" arrival="212.00" arrivalLane="junctionNorth_0" arrivalPos="492.80" arrivalSpeed="22.19" duration="73.00" routeLength="995.01" waitingTime="14.00" waitingCount="1" stopTime="0.00" timeLoss="27.29" rerouteNo="0" devices="tripinfo_southNorth.6 ssm_southNorth.6" vType="carCustom" speedFactor="0.93" vaporized=""/>
    <tripinfo id="westEastTop.18" depart="123.00" departLane="westJunction_1" departPos="5.10" departSpeed="13.35" departDelay="1.10" arrival="213.00" arrivalLane="junctionEast_1" arrivalPos="492.80" arrivalSpeed="21.30" duration="90.00" routeLength="994.90" waitingTime="0.00" waitingCount="0" stopTime="0.00" timeLoss="45.20" rerouteNo="0" devices="tripinfo_westEastTop.18 ssm_westEastTop.18" vType="carCustom" speedFactor="1.03" vaporized=""/>
    <tripinfo id="southEast.10" depart="135.00" departLane="southJunction_0" departPos="5.10" departSpeed="12.20" departDelay="0.81" arrival="216.00" arrivalLane="junctionEast_0" arrivalPos="492.80" arrivalSpeed="21.03" duration="81.00" routeLength="989.53" waitingTime="0.00" waitingCount="0" stopTime="0.00" timeLoss="34.57" rerouteNo="0" devices="tripinfo_southEast.10 ssm_southEast.10" vType="carCustom" speedFactor="0.92" vaporized=""/>
    <tripinfo id="westEastTop.19" depart="125.00" departLane="westJunction_1" departPos="5.10" departSpeed="9.27" departDelay="2.35" arrival="219.00" arrivalLane="junctionEast_1" arrivalPos="492.80" arrivalSpeed="21.52" duration="94.00" routeLength="994.90" waitingTime="0.00" waitingCount="0" stopTime="0.00" timeLoss="48.86" rerouteNo="0" devices="tripinfo_westEastTop.19 ssm_westEastTop.19" vType="carCustom" speedFactor="1.08" vaporized=""/>
    <tripinfo id="southNorth.7" depart="145.00" departLane="southJunction_1" departPos="5.10" departSpeed="10.37" departDelay="1.07" arrival="219.00" arrivalLane="junctionNorth_0" arrivalPos="492.80" arrivalSpeed="21.25" duration="74.00" routeLength="995.01" waitingTime="0.00" waitingCount="0" stopTime="0.00" timeLoss="28.39" rerouteNo="0" devices="tripinfo_southNorth.7 ssm_southNorth.7" vType="carCustom" speedFactor="0.94" vaporized=""/>
    <tripinfo id="southEast.11" depart="137.00" departLane="southJunction_0" departPos="5.10" departSpeed="15.95" departDelay="2.46" arrival="221.00" arrivalLane="junctionEast_0" arrivalPos="492.80" arrivalSpeed="21.76" duration="84.00" routeLength="989.53" waitingTime="0.00" waitingCount="0" stopTime="0.00" timeLoss="38.38" rerouteNo="0" devices="tripinfo_southEast.11 ssm_southEast.11" vType="carCustom" speedFactor="0.99" vaporized=""/>
    <tripinfo id="westEastTop.20" depart="128.00" departLane="westJunction_1" departPos="5.10" departSpeed="5.15" departDelay="2.65" arrival="225.00" arrivalLane="junctionEast_1" arrivalPos="492.80" arrivalSpeed="21.23" duration="97.00" routeLength="994.90" waitingTime="1.00" waitingCount="1" stopTime="0.00" timeLoss="51.75" rerouteNo="0" devices="tripinfo_westEastTop.20 ssm_westEastTop.20" vType="carCustom" speedFactor="1.07" vaporized=""/>
    <tripinfo id="southEast.13" depart="143.00" departLane="southJunction_0" departPos="5.10" departSpeed="10.54" departDelay="2.29" arrival="226.00" arrivalLane="junctionEast_0" arrivalPos="492.80" arrivalSpeed="21.46" duration="83.00" routeLength="989.53" waitingTime="0.00" waitingCount="0" stopTime="0.00" timeLoss="37.14" rerouteNo="0" devices="tripinfo_southEast.13 ssm_southEast.13" vType="carCustom" speedFactor="1.04" vaporized=""/>
    <tripinfo id="southNorth.8" depart="151.00" departLane="southJunction_1" departPos="5.10" departSpeed="11.44" departDelay="0.33" arrival="226.00" arrivalLane="junctionNorth_0" arrivalPos="492.80" arrivalSpeed="21.71" duration="75.00" routeLength="995.01" waitingTime="1.00" waitingCount="1" stopTime="0.00" timeLoss="29.49" rerouteNo="0" devices="tripinfo_southNorth.8 ssm_southNorth.8" vType="carCustom" speedFactor="1.02" vaporized=""/>
    <tripinfo id="westEastTop.21" depart="131.00" departLane="westJunction_1" departPos="5.10" departSpeed="4.44" departDelay="2.08" arrival="231.00" arrivalLane="junctionEast_1" arrivalPos="492.80" arrivalSpeed="21.83" duration="100.00" routeLength="994.90" waitingTime="0.00" waitingCount="0" stopTime="0.00" timeLoss="54.54" rerouteNo="0" devices="tripinfo_westEastTop.21 ssm_westEastTop.21" vType="carCustom" speedFactor="0.91" vaporized=""/>
    <tripinfo id="southEast.12" depart="141.00" departLane="southJunction_0" departPos="5.10" departSpeed="11.93" departDelay="0.49" arrival="232.00" arrivalLane="junctionEast_0" arrivalPos="492.80" arrivalSpeed="22.12" duration="91.00" routeLength="989.53" waitingTime="0.00" waitingCount="0" stopTime="0.00" timeLoss="45.07" rerouteNo="0" devices="tripinfo_southEast.12 ssm_southEast.12" vType="carCustom" speedFactor="1.15" vaporized=""/>
    <tripinfo id="southNorth.9" depart="160.00" departLane="southJunction_1" departPos="5.10" departSpeed="12.56" departDelay="0.94" arrival="234.00" arrivalLane="junctionNorth_0" arrivalPos="492.80" arrivalSpeed="22.21" duration="74.00" routeLength="995.01" waitingTime="3.00" waitingCount="1" stopTime="0.00" timeLoss="28.49" rerouteNo="0" devices="tripinfo_southNorth.9 ssm_southNorth.9" vType="carCustom" speedFactor="0.86" vaporized=""/>
    <tripinfo id="westEastTop.22" depart="135.00" departLane="westJunction_1" departPos="5.10" departSpeed="4.99" departDelay="4.56" arrival="237.00" arrivalLane="junctionEast_1" arrivalPos="492.80" arrivalSpeed="21.41" duration="102.00" routeLength="994.90" waitingTime="0.00" waitingCount="0" stopTime="0.00" timeLoss="56.55" rerouteNo="0" devices="tripinfo_westEastTop.22 ssm_westEastTop.22" vType="carCustom" speedFactor="0.91" vaporized=""/>